4
iterationCount: 0, previousEnergy: -430.126300, currentEnergy: -426.746223, stepSize: 0.300000
1 0.0758421 -1.16725e-17 2.44097e-18
6 2.27681 6.35232e-17 -9.39724e-17
6 4.16719 6.09067e-17 7.3872e-17
1 6.36816 -1.12757e-16 1.76594e-17
4
iterationCount: 1, previousEnergy: -430.126300, currentEnergy: -430.105493, stepSize: 0.150000
1 0.037921 -5.83623e-18 1.22048e-18
6 2.17776 3.17616e-17 -4.69862e-17
6 4.26624 3.04533e-17 3.6936e-17
1 6.40608 -5.63787e-17 8.82971e-18
4
iterationCount: 2, previousEnergy: -430.126300, currentEnergy: -430.454975, stepSize: 0.075000
1 0.0189605 -2.91811e-18 6.10242e-19
6 2.12823 1.58808e-17 -2.34931e-17
6 4.31577 1.52267e-17 1.8468e-17
1 6.42504 -2.81894e-17 4.41486e-18
4
iterationCount: 2, previousEnergy: -430.454975, currentEnergy: -430.454975, stepSize: 0.093750
1 0.0189605 -2.91811e-18 6.10242e-19
6 2.12823 1.58808e-17 -2.34931e-17
6 4.31577 1.52267e-17 1.8468e-17
1 6.42504 -2.81894e-17 4.41486e-18
4
iterationCount: 3, previousEnergy: -430.454975, currentEnergy: -430.631852, stepSize: 0.093750
1 0.0818316 4.84282e-18 -2.72196e-18
6 2.10721 -4.37402e-17 2.6935e-17
6 4.33679 7.09543e-17 -3.70712e-17
1 6.36217 -3.20569e-17 1.28582e-17
4
iterationCount: 3, previousEnergy: -430.631852, currentEnergy: -430.631852, stepSize: 0.117188
1 0.0818316 4.84282e-18 -2.72196e-18
6 2.10721 -4.37402e-17 2.6935e-17
6 4.33679 7.09543e-17 -3.70712e-17
1 6.36217 -3.20569e-17 1.28582e-17
4
iterationCount: 4, previousEnergy: -430.631852, currentEnergy: -430.284864, stepSize: 0.117188
1 0.104432 -3.26667e-18 4.27947e-18
6 2.18693 -1.38018e-17 -1.00742e-17
6 4.25707 7.94415e-17 2.18581e-17
1 6.33957 -6.2373e-17 -1.60634e-17
4
iterationCount: 5, previousEnergy: -430.631852, currentEnergy: -430.701804, stepSize: 0.058594
1 0.0931319 7.88072e-19 7.78755e-19
6 2.14707 -2.8771e-17 8.43043e-18
6 4.29693 7.51979e-17 -7.60656e-18
1 6.35087 -4.7215e-17 -1.60263e-18
4
iterationCount: 5, previousEnergy: -430.701804, currentEnergy: -430.701804, stepSize: 0.073242
1 0.0931319 7.88072e-19 7.78755e-19
6 2.14707 -2.8771e-17 8.43043e-18
6 4.29693 7.51979e-17 -7.60656e-18
1 6.35087 -4.7215e-17 -1.60263e-18
4
iterationCount: 6, previousEnergy: -430.701804, currentEnergy: -430.633348, stepSize: 0.073242
1 0.120434 -4.76953e-18 -7.206e-19
6 2.10306 -7.16076e-17 -4.68251e-17
6 4.34094 1.24187e-16 6.86815e-17
1 6.32357 -4.781e-17 -2.11358e-17
4
iterationCount: 7, previousEnergy: -430.701804, currentEnergy: -430.758112, stepSize: 0.036621
1 0.106783 -1.99073e-18 2.90773e-20
6 2.12507 -5.01893e-17 -1.91973e-17
6 4.31893 9.96925e-17 3.05375e-17
1 6.33722 -4.75125e-17 -1.13692e-17
4
iterationCount: 7, previousEnergy: -430.758112, currentEnergy: -430.758112, stepSize: 0.045776
1 0.106783 -1.99073e-18 2.90773e-20
6 2.12507 -5.01893e-17 -1.91973e-17
6 4.31893 9.96925e-17 3.05375e-17
1 6.33722 -4.75125e-17 -1.13692e-17
4
iterationCount: 8, previousEnergy: -430.758112, currentEnergy: -430.747613, stepSize: 0.045776
1 0.123435 -1.1658e-17 1.50176e-18
6 2.15282 -1.70278e-16 -8.39725e-17
6 4.29118 2.72885e-16 9.93824e-17
1 6.32057 -9.0949e-17 -1.69117e-17
4
iterationCount: 9, previousEnergy: -430.758112, currentEnergy: -430.780192, stepSize: 0.022888
1 0.115109 -6.82434e-18 7.6542e-19
6 2.13894 -1.10234e-16 -5.15849e-17
6 4.30506 1.86289e-16 6.49599e-17
1 6.32889 -6.92308e-17 -1.41405e-17
4
iterationCount: 9, previousEnergy: -430.780192, currentEnergy: -430.780192, stepSize: 0.028610
1 0.115109 -6.82434e-18 7.6542e-19
6 2.13894 -1.10234e-16 -5.15849e-17
6 4.30506 1.86289e-16 6.49599e-17
1 6.32889 -6.92308e-17 -1.41405e-17
4
iterationCount: 10, previousEnergy: -430.780192, currentEnergy: -430.786111, stepSize: 0.028610
1 0.130954 -1.16681e-17 7.63806e-18
6 2.12637 -1.26169e-16 -6.37012e-17
6 4.31763 1.81897e-16 3.73694e-17
1 6.31305 -4.40604e-17 1.86938e-17
4
iterationCount: 10, previousEnergy: -430.786111, currentEnergy: -430.786111, stepSize: 0.035763
1 0.130954 -1.16681e-17 7.63806e-18
6 2.12637 -1.26169e-16 -6.37012e-17
6 4.31763 1.81897e-16 3.73694e-17
1 6.31305 -4.40604e-17 1.86938e-17
4
iterationCount: 11, previousEnergy: -430.786111, currentEnergy: -430.773463, stepSize: 0.035763
1 0.134497 -1.68675e-17 1.13905e-17
6 2.15141 -1.14192e-16 -1.10754e-16
6 4.29259 2.08762e-16 6.46342e-17
1 6.3095 -7.77031e-17 3.47293e-17
4
iterationCount: 12, previousEnergy: -430.786111, currentEnergy: -430.803987, stepSize: 0.017881
1 0.132726 -1.42678e-17 9.51429e-18
6 2.13889 -1.2018e-16 -8.72276e-17
6 4.30511 1.9533e-16 5.10018e-17
1 6.31127 -6.08818e-17 2.67115e-17
4
iterationCount: 12, previousEnergy: -430.803987, currentEnergy: -430.803987, stepSize: 0.022352
1 0.132726 -1.42678e-17 9.51429e-18
6 2.13889 -1.2018e-16 -8.72276e-17
6 4.30511 1.9533e-16 5.10018e-17
1 6.31127 -6.08818e-17 2.67115e-17
4
iterationCount: 13, previousEnergy: -430.803987, currentEnergy: -430.800502, stepSize: 0.022352
1 0.145981 -2.10067e-17 -2.32489e-17
6 2.13028 -1.21134e-16 -5.62865e-17
6 4.31372 2.0117e-16 9.03027e-17
1 6.29802 -5.9029e-17 -1.07673e-17
4
iterationCount: 14, previousEnergy: -430.803987, currentEnergy: -430.807540, stepSize: 0.011176
1 0.139353 -1.76373e-17 -6.86729e-18
6 2.13458 -1.20657e-16 -7.17571e-17
6 4.30942 1.9825e-16 7.06522e-17
1 6.30465 -5.99554e-17 7.97212e-18
4
iterationCount: 14, previousEnergy: -430.807540, currentEnergy: -430.807540, stepSize: 0.013970
1 0.139353 -1.76373e-17 -6.86729e-18
6 2.13458 -1.20657e-16 -7.17571e-17
6 4.30942 1.9825e-16 7.06522e-17
1 6.30465 -5.99554e-17 7.97212e-18
4
iterationCount: 15, previousEnergy: -430.807540, currentEnergy: -430.806602, stepSize: 0.013970
1 0.143044 -2.26219e-17 -1.09796e-17
6 2.14375 -1.55095e-16 -5.49207e-18
6 4.30025 2.16855e-16 1.38618e-17
1 6.30096 -3.91378e-17 2.60986e-18
4
iterationCount: 16, previousEnergy: -430.807540, currentEnergy: -430.810147, stepSize: 0.006985
1 0.141198 -2.01296e-17 -8.92342e-18
6 2.13916 -1.37876e-16 -3.86246e-17
6 4.30484 2.07552e-16 4.2257e-17
1 6.3028 -4.95466e-17 5.29099e-18
4
iterationCount: 16, previousEnergy: -430.810147, currentEnergy: -430.810147, stepSize: 0.008731
1 0.141198 -2.01296e-17 -8.92342e-18
6 2.13916 -1.37876e-16 -3.86246e-17
6 4.30484 2.07552e-16 4.2257e-17
1 6.3028 -4.95466e-17 5.29099e-18
4
iterationCount: 17, previousEnergy: -430.810147, currentEnergy: -430.811055, stepSize: 0.008731
1 0.146533 -1.8781e-17 -1.26209e-17
6 2.13606 -1.46488e-16 5.50338e-17
6 4.30794 2.63527e-16 -4.44887e-17
1 6.29747 -9.82577e-17 2.07572e-18
4
iterationCount: 17, previousEnergy: -430.811055, currentEnergy: -430.811055, stepSize: 0.010914
1 0.146533 -1.8781e-17 -1.26209e-17
6 2.13606 -1.46488e-16 5.50338e-17
6 4.30794 2.63527e-16 -4.44887e-17
1 6.29747 -9.82577e-17 2.07572e-18
4
iterationCount: 18, previousEnergy: -430.811055, currentEnergy: -430.809287, stepSize: 0.010914
1 0.147731 -9.76557e-18 -5.84303e-18
6 2.14368 -1.50304e-16 8.14069e-17
6 4.30032 2.48325e-16 -5.16145e-17
1 6.29627 -8.82547e-17 -2.39494e-17
4
iterationCount: 19, previousEnergy: -430.811055, currentEnergy: -430.812423, stepSize: 0.005457
1 0.147132 -1.42733e-17 -9.23195e-18
6 2.13987 -1.48396e-16 6.82204e-17
6 4.30413 2.55926e-16 -4.80516e-17
1 6.29687 -9.32562e-17 -1.09368e-17
4
iterationCount: 19, previousEnergy: -430.812423, currentEnergy: -430.812423, stepSize: 0.006821
1 0.147132 -1.42733e-17 -9.23195e-18
6 2.13987 -1.48396e-16 6.82204e-17
6 4.30413 2.55926e-16 -4.80516e-17
1 6.29687 -9.32562e-17 -1.09368e-17
4
iterationCount: 20, previousEnergy: -430.812423, currentEnergy: -430.811751, stepSize: 0.006821
1 0.150639 -1.57659e-17 -1.3329e-18
6 2.13656 -1.31067e-16 1.46056e-16
6 4.30744 2.22338e-16 -1.51921e-16
1 6.29336 -7.55053e-17 7.19844e-18
4
iterationCount: 21, previousEnergy: -430.812423, currentEnergy: -430.812738, stepSize: 0.003411
1 0.148885 -1.50196e-17 -5.28242e-18
6 2.13821 -1.39732e-16 1.07138e-16
6 4.30579 2.39132e-16 -9.99864e-17
1 6.29511 -8.43808e-17 -1.8692e-18
4
iterationCount: 21, previousEnergy: -430.812738, currentEnergy: -430.812738, stepSize: 0.004263
1 0.148885 -1.50196e-17 -5.28242e-18
6 2.13821 -1.39732e-16 1.07138e-16
6 4.30579 2.39132e-16 -9.99864e-17
1 6.29511 -8.43808e-17 -1.8692e-18
4
iterationCount: 22, previousEnergy: -430.812738, currentEnergy: -430.812664, stepSize: 0.004263
1 0.149956 -1.82195e-17 -3.83339e-18
6 2.14103 -1.28129e-16 1.48218e-16
6 4.30297 2.38202e-16 -1.45064e-16
1 6.29404 -9.1854e-17 6.80345e-19
4
iterationCount: 23, previousEnergy: -430.812738, currentEnergy: -430.812994, stepSize: 0.002132
1 0.149421 -1.66195e-17 -4.55791e-18
6 2.13962 -1.3393e-16 1.27678e-16
6 4.30438 2.38667e-16 -1.22525e-16
1 6.29458 -8.81174e-17 -5.94425e-19
4
iterationCount: 23, previousEnergy: -430.812994, currentEnergy: -430.812994, stepSize: 0.002665
1 0.149421 -1.66195e-17 -4.55791e-18
6 2.13962 -1.3393e-16 1.27678e-16
6 4.30438 2.38667e-16 -1.22525e-16
1 6.29458 -8.81174e-17 -5.94425e-19
4
iterationCount: 24, previousEnergy: -430.812994, currentEnergy: -430.813089, stepSize: 0.002665
1 0.151082 -2.36075e-17 1.63514e-17
6 2.13873 -4.04863e-17 8.05152e-17
6 4.30527 1.53358e-16 -9.06535e-17
1 6.29292 -8.9264e-17 -6.21315e-18
4
iterationCount: 24, previousEnergy: -430.813089, currentEnergy: -430.813089, stepSize: 0.003331
1 0.151082 -2.36075e-17 1.63514e-17
6 2.13873 -4.04863e-17 8.05152e-17
6 4.30527 1.53358e-16 -9.06535e-17
1 6.29292 -8.9264e-17 -6.21315e-18
4
iterationCount: 25, previousEnergy: -430.813089, currentEnergy: -430.812908, stepSize: 0.003331
1 0.151465 -2.21094e-17 2.09836e-17
6 2.14106 3.53865e-17 9.54898e-17
6 4.30294 7.02013e-17 -8.50913e-17
1 6.29253 -8.34785e-17 -3.13821e-17
4
iterationCount: 26, previousEnergy: -430.813089, currentEnergy: -430.813208, stepSize: 0.001665
1 0.151274 -2.28584e-17 1.86675e-17
6 2.13989 -2.54988e-18 8.80025e-17
6 4.30411 1.1178e-16 -8.78724e-17
1 6.29273 -8.63713e-17 -1.87976e-17
4
iterationCount: 26, previousEnergy: -430.813208, currentEnergy: -430.813208, stepSize: 0.002082
1 0.151274 -2.28584e-17 1.86675e-17
6 2.13989 -2.54988e-18 8.80025e-17
6 4.30411 1.1178e-16 -8.78724e-17
1 6.29273 -8.63713e-17 -1.87976e-17
4
iterationCount: 27, previousEnergy: -430.813208, currentEnergy: -430.813140, stepSize: 0.002082
1 0.152298 -1.51831e-17 3.68221e-17
6 2.13884 -1.98448e-17 9.4919e-17
6 4.30516 7.89325e-17 -9.71751e-17
1 6.2917 -4.39045e-17 -3.45659e-17
4
iterationCount: 28, previousEnergy: -430.813208, currentEnergy: -430.813238, stepSize: 0.001041
1 0.151786 -1.90208e-17 2.77448e-17
6 2.13937 -1.11974e-17 9.14607e-17
6 4.30463 9.5356e-17 -9.25237e-17
1 6.29221 -6.51379e-17 -2.66818e-17
4
iterationCount: 28, previousEnergy: -430.813238, currentEnergy: -430.813238, stepSize: 0.001301
1 0.151786 -1.90208e-17 2.77448e-17
6 2.13937 -1.11974e-17 9.14607e-17
6 4.30463 9.5356e-17 -9.25237e-17
1 6.29221 -6.51379e-17 -2.66818e-17
4
iterationCount: 29, previousEnergy: -430.813238, currentEnergy: -430.813231, stepSize: 0.001301
1 0.15212 -2.45871e-17 3.30392e-17
6 2.14022 -5.877e-17 8.49785e-17
6 4.30378 1.20013e-16 -6.58046e-17
1 6.29188 -3.66558e-17 -5.22132e-17
4
iterationCount: 30, previousEnergy: -430.813238, currentEnergy: -430.813262, stepSize: 0.000651
1 0.151953 -2.18039e-17 3.0392e-17
6 2.13979 -3.49837e-17 8.82196e-17
6 4.30421 1.07684e-16 -7.91642e-17
1 6.29205 -5.08969e-17 -3.94475e-17
4
iterationCount: 30, previousEnergy: -430.813262, currentEnergy: -430.813262, stepSize: 0.000813
1 0.151953 -2.18039e-17 3.0392e-17
6 2.13979 -3.49837e-17 8.82196e-17
6 4.30421 1.07684e-16 -7.91642e-17
1 6.29205 -5.08969e-17 -3.94475e-17
4
iterationCount: 31, previousEnergy: -430.813262, currentEnergy: -430.813270, stepSize: 0.000813
1 0.152455 -2.18391e-17 5.09672e-17
6 2.13951 -9.30202e-17 2.86677e-17
6 4.30449 1.66393e-16 -3.36795e-17
1 6.29154 -5.15333e-17 -4.59554e-17
4
iterationCount: 31, previousEnergy: -430.813270, currentEnergy: -430.813270, stepSize: 0.001016
1 0.152455 -2.18391e-17 5.09672e-17
6 2.13951 -9.30202e-17 2.86677e-17
6 4.30449 1.66393e-16 -3.36795e-17
1 6.29154 -5.15333e-17 -4.59554e-17
4
iterationCount: 32, previousEnergy: -430.813270, currentEnergy: -430.813254, stepSize: 0.001016
1 0.15257 -1.93587e-17 4.72417e-17
6 2.14022 -8.9059e-17 4.39961e-17
6 4.30378 1.29895e-16 -4.26005e-17
1 6.29143 -2.14773e-17 -4.86372e-17
4
iterationCount: 33, previousEnergy: -430.813270, currentEnergy: -430.813282, stepSize: 0.000508
1 0.152513 -2.05989e-17 4.91044e-17
6 2.13987 -9.10396e-17 3.63319e-17
6 4.30413 1.48144e-16 -3.814e-17
1 6.29149 -3.65053e-17 -4.72963e-17
4
iterationCount: 33, previousEnergy: -430.813282, currentEnergy: -430.813282, stepSize: 0.000635
1 0.152513 -2.05989e-17 4.91044e-17
6 2.13987 -9.10396e-17 3.63319e-17
6 4.30413 1.48144e-16 -3.814e-17
1 6.29149 -3.65053e-17 -4.72963e-17
4
iterationCount: 34, previousEnergy: -430.813282, currentEnergy: -430.813276, stepSize: 0.000635
1 0.152833 -2.42261e-17 3.84771e-17
6 2.13955 -9.14441e-17 8.57942e-17
6 4.30445 1.30091e-16 -9.85135e-17
1 6.29117 -1.44206e-17 -2.57579e-17
4
iterationCount: 35, previousEnergy: -430.813282, currentEnergy: -430.813284, stepSize: 0.000318
1 0.152673 -2.24125e-17 4.37908e-17
6 2.13971 -9.12419e-17 6.10631e-17
6 4.30429 1.39117e-16 -6.83267e-17
1 6.29133 -2.5463e-17 -3.65271e-17
4
iterationCount: 35, previousEnergy: -430.813284, currentEnergy: -430.813284, stepSize: 0.000397
1 0.152673 -2.24125e-17 4.37908e-17
6 2.13971 -9.12419e-17 6.10631e-17
6 4.30429 1.39117e-16 -6.83267e-17
1 6.29133 -2.5463e-17 -3.65271e-17
4
iterationCount: 36, previousEnergy: -430.813284, currentEnergy: -430.813284, stepSize: 0.000397
1 0.152774 -1.54465e-17 4.09274e-17
6 2.13997 -2.32279e-16 6.12223e-17
6 4.30403 2.33368e-16 -8.32495e-17
1 6.29123 1.43575e-17 -1.89001e-17
4
iterationCount: 37, previousEnergy: -430.813284, currentEnergy: -430.813287, stepSize: 0.000199
1 0.152723 -1.89295e-17 4.23591e-17
6 2.13984 -1.6176e-16 6.11427e-17
6 4.30416 1.86242e-16 -7.57881e-17
1 6.29128 -5.55275e-18 -2.77136e-17
4
iterationCount: 37, previousEnergy: -430.813287, currentEnergy: -430.813287, stepSize: 0.000248
1 0.152723 -1.89295e-17 4.23591e-17
6 2.13984 -1.6176e-16 6.11427e-17
6 4.30416 1.86242e-16 -7.57881e-17
1 6.29128 -5.55275e-18 -2.77136e-17
4
iterationCount: 38, previousEnergy: -430.813287, currentEnergy: -430.813287, stepSize: 0.000248
1 0.152878 -1.51879e-17 4.5428e-17
6 2.13976 -9.07397e-17 9.78584e-17
6 4.30424 8.98044e-17 -1.24517e-16
1 6.29112 1.61231e-17 -1.87691e-17
4
iterationCount: 38, previousEnergy: -430.813287, currentEnergy: -430.813287, stepSize: 0.000310
1 0.152878 -1.51879e-17 4.5428e-17
6 2.13976 -9.07397e-17 9.78584e-17
6 4.30424 8.98044e-17 -1.24517e-16
1 6.29112 1.61231e-17 -1.87691e-17
4
iterationCount: 39, previousEnergy: -430.813287, currentEnergy: -430.813286, stepSize: 0.000310
1 0.152914 -2.58445e-17 4.50217e-17
6 2.13998 -5.32597e-17 5.60134e-17
6 4.30402 9.43589e-17 -5.32957e-17
1 6.29109 -1.52548e-17 -4.77394e-17
4
iterationCount: 40, previousEnergy: -430.813287, currentEnergy: -430.813289, stepSize: 0.000155
1 0.152896 -2.05162e-17 4.52249e-17
6 2.13987 -7.19997e-17 7.69359e-17
6 4.30413 9.20817e-17 -8.89064e-17
1 6.2911 4.3417e-19 -3.32543e-17
4
iterationCount: 40, previousEnergy: -430.813289, currentEnergy: -430.813289, stepSize: 0.000194
1 0.152896 -2.05162e-17 4.52249e-17
6 2.13987 -7.19997e-17 7.69359e-17
6 4.30413 9.20817e-17 -8.89064e-17
1 6.2911 4.3417e-19 -3.32543e-17
