18
iterationCount: 0, previousEnergy: -1455.778656, currentEnergy: -1440.241551, stepSize: 0.750000
6 0.0285048 -1.22254 0.0960888
6 -1.04464 -0.635876 -0.0960941
6 -1.07285 0.586661 0.096092
6 -0.0285048 1.22254 -0.0960888
6 1.04464 0.635876 0.0960941
6 1.07285 -0.586661 -0.096092
1 0.033629 -1.44754 1.31665
1 0.0568588 -2.44622 -0.094259
1 -1.23674 -0.752927 -1.31666
1 -2.09007 -1.27229 0.0942409
1 -2.14694 1.17394 -0.0942848
1 -1.27047 0.694608 1.31665
1 -0.033629 1.44754 -1.31665
1 -0.0568588 2.44622 0.094259
1 2.09007 1.27229 -0.0942409
1 1.23674 0.752927 1.31666
1 2.14694 -1.17394 0.0942848
1 1.27047 -0.694608 -1.31665
18
iterationCount: 1, previousEnergy: -1455.778656, currentEnergy: -1457.460784, stepSize: 0.375000
6 0.0310024 -1.33232 0.175544
6 -1.13837 -0.692988 -0.175547
6 -1.16927 0.639331 0.175546
6 -0.0310024 1.33232 -0.175544
6 1.13837 0.692988 0.175547
6 1.16927 -0.639331 -0.175546
1 0.0335645 -1.44482 1.33083
1 0.0571294 -2.45786 -0.10128
1 -1.23442 -0.751514 -1.33083
1 -2.10003 -1.27834 0.10127
1 -2.15712 1.17952 -0.101292
1 -1.26808 0.693304 1.33083
1 -0.0335645 1.44482 -1.33083
1 -0.0571294 2.45786 0.10128
1 2.10003 1.27834 -0.10127
1 1.23442 0.751514 1.33083
1 2.15712 -1.17952 0.101292
1 1.26808 -0.693304 -1.33083
18
iterationCount: 1, previousEnergy: -1457.460784, currentEnergy: -1457.460784, stepSize: 0.468750
6 0.0310024 -1.33232 0.175544
6 -1.13837 -0.692988 -0.175547
6 -1.16927 0.639331 0.175546
6 -0.0310024 1.33232 -0.175544
6 1.13837 0.692988 0.175547
6 1.16927 -0.639331 -0.175546
1 0.0335645 -1.44482 1.33083
1 0.0571294 -2.45786 -0.10128
1 -1.23442 -0.751514 -1.33083
1 -2.10003 -1.27834 0.10127
1 -2.15712 1.17952 -0.101292
1 -1.26808 0.693304 1.33083
1 -0.0335645 1.44482 -1.33083
1 -0.0571294 2.45786 0.10128
1 2.10003 1.27834 -0.10127
1 1.23442 0.751514 1.33083
1 2.15712 -1.17952 0.101292
1 1.26808 -0.693304 -1.33083
18
iterationCount: 2, previousEnergy: -1457.460784, currentEnergy: -1454.622211, stepSize: 0.468750
6 0.0331707 -1.43153 0.256127
6 -1.22305 -0.744604 -0.256119
6 -1.25644 0.686932 0.256136
6 -0.0331707 1.43153 -0.256127
6 1.22305 0.744604 0.256119
6 1.25644 -0.686932 -0.256136
1 0.0334254 -1.43855 1.27021
1 0.0555955 -2.39166 -0.0919734
1 -1.22908 -0.748254 -1.27021
1 -2.04349 -1.24393 0.0919706
1 -2.099 1.14773 -0.091978
1 -1.26258 0.690299 1.2702
1 -0.0334254 1.43855 -1.27021
1 -0.0555955 2.39166 0.0919734
1 2.04349 1.24393 -0.0919706
1 1.22908 0.748254 1.27021
1 2.099 -1.14773 0.091978
1 1.26258 -0.690299 -1.2702
18
iterationCount: 3, previousEnergy: -1457.460784, currentEnergy: -1459.609522, stepSize: 0.234375
6 0.0320866 -1.38193 0.215836
6 -1.18071 -0.718796 -0.215833
6 -1.21286 0.663131 0.215841
6 -0.0320866 1.38193 -0.215836
6 1.18071 0.718796 0.215833
6 1.21286 -0.663131 -0.215841
1 0.033495 -1.44168 1.30052
1 0.0563625 -2.42476 -0.0966265
1 -1.23175 -0.749884 -1.30052
1 -2.07176 -1.26114 0.0966205
1 -2.12806 1.16363 -0.0966352
1 -1.26533 0.691801 1.30052
1 -0.033495 1.44168 -1.30052
1 -0.0563625 2.42476 0.0966265
1 2.07176 1.26114 -0.0966205
1 1.23175 0.749884 1.30052
1 2.12806 -1.16363 0.0966352
1 1.26533 -0.691801 -1.30052
18
iterationCount: 3, previousEnergy: -1459.609522, currentEnergy: -1459.609522, stepSize: 0.292969
6 0.0320866 -1.38193 0.215836
6 -1.18071 -0.718796 -0.215833
6 -1.21286 0.663131 0.215841
6 -0.0320866 1.38193 -0.215836
6 1.18071 0.718796 0.215833
6 1.21286 -0.663131 -0.215841
1 0.033495 -1.44168 1.30052
1 0.0563625 -2.42476 -0.0966265
1 -1.23175 -0.749884 -1.30052
1 -2.07176 -1.26114 0.0966205
1 -2.12806 1.16363 -0.0966352
1 -1.26533 0.691801 1.30052
1 -0.033495 1.44168 -1.30052
1 -0.0563625 2.42476 0.0966265
1 2.07176 1.26114 -0.0966205
1 1.23175 0.749884 1.30052
1 2.12806 -1.16363 0.0966352
1 1.26533 -0.691801 -1.30052
18
iterationCount: 4, previousEnergy: -1459.609522, currentEnergy: -1457.235228, stepSize: 0.292969
6 0.0302009 -1.29421 0.170073
6 -1.10586 -0.673119 -0.170105
6 -1.13579 0.621092 0.170039
6 -0.0302009 1.29421 -0.170073
6 1.10586 0.673119 0.170105
6 1.13579 -0.621092 -0.170039
1 0.0334894 -1.44142 1.29231
1 0.0559531 -2.4073 -0.0974777
1 -1.23153 -0.749745 -1.29231
1 -2.05683 -1.25207 0.0974691
1 -2.11274 1.15524 -0.0974882
1 -1.2651 0.691677 1.29232
1 -0.0334894 1.44142 -1.29231
1 -0.0559531 2.4073 0.0974777
1 2.05683 1.25207 -0.0974691
1 1.23153 0.749745 1.29231
1 2.11274 -1.15524 0.0974882
1 1.2651 -0.691677 -1.29232
18
iterationCount: 5, previousEnergy: -1459.609522, currentEnergy: -1459.695027, stepSize: 0.146484
6 0.0311438 -1.33807 0.192955
6 -1.14329 -0.695958 -0.192969
6 -1.17432 0.642111 0.19294
6 -0.0311438 1.33807 -0.192955
6 1.14329 0.695958 0.192969
6 1.17432 -0.642111 -0.19294
1 0.0334922 -1.44155 1.29641
1 0.0561578 -2.41603 -0.0970521
1 -1.23164 -0.749814 -1.29641
1 -2.0643 -1.2566 0.0970448
1 -2.1204 1.15943 -0.0970617
1 -1.26521 0.691739 1.29642
1 -0.0334922 1.44155 -1.29641
1 -0.0561578 2.41603 0.0970521
1 2.0643 1.2566 -0.0970448
1 1.23164 0.749814 1.29641
1 2.1204 -1.15943 0.0970617
1 1.26521 -0.691739 -1.29642
18
iterationCount: 5, previousEnergy: -1459.695027, currentEnergy: -1459.695027, stepSize: 0.183105
6 0.0311438 -1.33807 0.192955
6 -1.14329 -0.695958 -0.192969
6 -1.17432 0.642111 0.19294
6 -0.0311438 1.33807 -0.192955
6 1.14329 0.695958 0.192969
6 1.17432 -0.642111 -0.19294
1 0.0334922 -1.44155 1.29641
1 0.0561578 -2.41603 -0.0970521
1 -1.23164 -0.749814 -1.29641
1 -2.0643 -1.2566 0.0970448
1 -2.1204 1.15943 -0.0970617
1 -1.26521 0.691739 1.29642
1 -0.0334922 1.44155 -1.29641
1 -0.0561578 2.41603 0.0970521
1 2.0643 1.2566 -0.0970448
1 1.23164 0.749814 1.29641
1 2.1204 -1.15943 0.0970617
1 1.26521 -0.691739 -1.29642
18
iterationCount: 6, previousEnergy: -1459.695027, currentEnergy: -1458.995490, stepSize: 0.183105
6 0.0320516 -1.38432 0.226379
6 -1.1827 -0.72005 -0.226361
6 -1.21501 0.664273 0.226402
6 -0.0320516 1.38432 -0.226379
6 1.1827 0.72005 0.226361
6 1.21501 -0.664273 -0.226402
1 0.0334204 -1.4383 1.27664
1 0.0554353 -2.38482 -0.0947308
1 -1.22886 -0.74812 -1.27666
1 -2.03764 -1.24038 0.0947263
1 -2.093 1.14445 -0.0947376
1 -1.26235 0.690179 1.27663
1 -0.0334204 1.4383 -1.27664
1 -0.0554353 2.38482 0.0947308
1 2.03764 1.24038 -0.0947263
1 1.22886 0.74812 1.27666
1 2.093 -1.14445 0.0947376
1 1.26235 -0.690179 -1.27663
18
iterationCount: 7, previousEnergy: -1459.695027, currentEnergy: -1460.061823, stepSize: 0.091553
6 0.0315977 -1.36119 0.209667
6 -1.16299 -0.708004 -0.209665
6 -1.19467 0.653192 0.209671
6 -0.0315977 1.36119 -0.209667
6 1.16299 0.708004 0.209665
6 1.19467 -0.653192 -0.209671
1 0.0334563 -1.43993 1.28653
1 0.0557965 -2.40043 -0.0958915
1 -1.23025 -0.748967 -1.28654
1 -2.05097 -1.24849 0.0958856
1 -2.1067 1.15194 -0.0958996
1 -1.26378 0.690959 1.28652
1 -0.0334563 1.43993 -1.28653
1 -0.0557965 2.40043 0.0958915
1 2.05097 1.24849 -0.0958856
1 1.23025 0.748967 1.28654
1 2.1067 -1.15194 0.0958996
1 1.26378 -0.690959 -1.28652
18
iterationCount: 7, previousEnergy: -1460.061823, currentEnergy: -1460.061823, stepSize: 0.114441
6 0.0315977 -1.36119 0.209667
6 -1.16299 -0.708004 -0.209665
6 -1.19467 0.653192 0.209671
6 -0.0315977 1.36119 -0.209667
6 1.16299 0.708004 0.209665
6 1.19467 -0.653192 -0.209671
1 0.0334563 -1.43993 1.28653
1 0.0557965 -2.40043 -0.0958915
1 -1.23025 -0.748967 -1.28654
1 -2.05097 -1.24849 0.0958856
1 -2.1067 1.15194 -0.0958996
1 -1.26378 0.690959 1.28652
1 -0.0334563 1.43993 -1.28653
1 -0.0557965 2.40043 0.0958915
1 2.05097 1.24849 -0.0958856
1 1.23025 0.748967 1.28654
1 2.1067 -1.15194 0.0958996
1 1.26378 -0.690959 -1.28652
18
iterationCount: 8, previousEnergy: -1460.061823, currentEnergy: -1459.676815, stepSize: 0.114441
6 0.0309386 -1.32648 0.192038
6 -1.13344 -0.689914 -0.192067
6 -1.1641 0.636567 0.192008
6 -0.0309386 1.32648 -0.192038
6 1.13344 0.689914 0.192067
6 1.1641 -0.636567 -0.192008
1 0.0334317 -1.43889 1.293
1 0.0557077 -2.39679 -0.101128
1 -1.22937 -0.748428 -1.293
1 -2.04785 -1.2466 0.101116
1 -2.10353 1.1502 -0.101144
1 -1.26287 0.690465 1.293
1 -0.0334317 1.43889 -1.293
1 -0.0557077 2.39679 0.101128
1 2.04785 1.2466 -0.101116
1 1.22937 0.748428 1.293
1 2.10353 -1.1502 0.101144
1 1.26287 -0.690465 -1.293
18
iterationCount: 9, previousEnergy: -1460.061823, currentEnergy: -1460.092279, stepSize: 0.057220
6 0.0312681 -1.34384 0.200852
6 -1.14822 -0.698959 -0.200866
6 -1.17938 0.64488 0.20084
6 -0.0312681 1.34384 -0.200852
6 1.14822 0.698959 0.200866
6 1.17938 -0.64488 -0.20084
1 0.033444 -1.43941 1.28976
1 0.0557521 -2.39861 -0.0985099
1 -1.22981 -0.748697 -1.28977
1 -2.04941 -1.24754 0.0985007
1 -2.10511 1.15107 -0.0985217
1 -1.26333 0.690712 1.28976
1 -0.033444 1.43941 -1.28976
1 -0.0557521 2.39861 0.0985099
1 2.04941 1.24754 -0.0985007
1 1.22981 0.748697 1.28977
1 2.10511 -1.15107 0.0985217
1 1.26333 -0.690712 -1.28976
18
iterationCount: 9, previousEnergy: -1460.092279, currentEnergy: -1460.092279, stepSize: 0.071526
6 0.0312681 -1.34384 0.200852
6 -1.14822 -0.698959 -0.200866
6 -1.17938 0.64488 0.20084
6 -0.0312681 1.34384 -0.200852
6 1.14822 0.698959 0.200866
6 1.17938 -0.64488 -0.20084
1 0.033444 -1.43941 1.28976
1 0.0557521 -2.39861 -0.0985099
1 -1.22981 -0.748697 -1.28977
1 -2.04941 -1.24754 0.0985007
1 -2.10511 1.15107 -0.0985217
1 -1.26333 0.690712 1.28976
1 -0.033444 1.43941 -1.28976
1 -0.0557521 2.39861 0.0985099
1 2.04941 1.24754 -0.0985007
1 1.22981 0.748697 1.28977
1 2.10511 -1.15107 0.0985217
1 1.26333 -0.690712 -1.28976
18
iterationCount: 10, previousEnergy: -1460.092279, currentEnergy: -1460.018649, stepSize: 0.071526
6 0.0315011 -1.35962 0.214771
6 -1.16161 -0.707195 -0.214759
6 -1.19332 0.652431 0.214786
6 -0.0315011 1.35962 -0.214771
6 1.16161 0.707195 0.214759
6 1.19332 -0.652431 -0.214786
1 0.0334015 -1.43748 1.28315
1 0.0554484 -2.38548 -0.0995649
1 -1.22817 -0.747693 -1.28316
1 -2.0382 -1.24072 0.09956
1 -2.09357 1.14476 -0.0995719
1 -1.26163 0.689787 1.28313
1 -0.0334015 1.43748 -1.28315
1 -0.0554484 2.38548 0.0995649
1 2.0382 1.24072 -0.09956
1 1.22817 0.747693 1.28316
1 2.09357 -1.14476 0.0995719
1 1.26163 -0.689787 -1.28313
18
iterationCount: 11, previousEnergy: -1460.092279, currentEnergy: -1460.154877, stepSize: 0.035763
6 0.0313846 -1.35173 0.207811
6 -1.15492 -0.703077 -0.207812
6 -1.18635 0.648655 0.207813
6 -0.0313846 1.35173 -0.207811
6 1.15492 0.703077 0.207812
6 1.18635 -0.648655 -0.207813
1 0.0334227 -1.43844 1.28645
1 0.0556003 -2.39204 -0.0990374
1 -1.22899 -0.748195 -1.28646
1 -2.0438 -1.24413 0.0990304
1 -2.09934 1.14791 -0.0990468
1 -1.26248 0.69025 1.28645
1 -0.0334227 1.43844 -1.28645
1 -0.0556003 2.39204 0.0990374
1 2.0438 1.24413 -0.0990304
1 1.22899 0.748195 1.28646
1 2.09934 -1.14791 0.0990468
1 1.26248 -0.69025 -1.28645
18
iterationCount: 11, previousEnergy: -1460.154877, currentEnergy: -1460.154877, stepSize: 0.044703
6 0.0313846 -1.35173 0.207811
6 -1.15492 -0.703077 -0.207812
6 -1.18635 0.648655 0.207813
6 -0.0313846 1.35173 -0.207811
6 1.15492 0.703077 0.207812
6 1.18635 -0.648655 -0.207813
1 0.0334227 -1.43844 1.28645
1 0.0556003 -2.39204 -0.0990374
1 -1.22899 -0.748195 -1.28646
1 -2.0438 -1.24413 0.0990304
1 -2.09934 1.14791 -0.0990468
1 -1.26248 0.69025 1.28645
1 -0.0334227 1.43844 -1.28645
1 -0.0556003 2.39204 0.0990374
1 2.0438 1.24413 -0.0990304
1 1.22899 0.748195 1.28646
1 2.09934 -1.14791 0.0990468
1 1.26248 -0.69025 -1.28645
18
iterationCount: 12, previousEnergy: -1460.154877, currentEnergy: -1460.131455, stepSize: 0.044703
6 0.0311952 -1.33889 0.203217
6 -1.14402 -0.696374 -0.203241
6 -1.17502 0.642517 0.203193
6 -0.0311952 1.33889 -0.203217
6 1.14402 0.696374 0.203241
6 1.17502 -0.642517 -0.203193
1 0.0333865 -1.43692 1.29013
1 0.0554963 -2.38774 -0.103698
1 -1.22769 -0.7474 -1.29013
1 -2.04011 -1.24189 0.103685
1 -2.09558 1.14585 -0.103713
1 -1.26114 0.68952 1.29013
1 -0.0333865 1.43692 -1.29013
1 -0.0554963 2.38774 0.103698
1 2.04011 1.24189 -0.103685
1 1.22769 0.7474 1.29013
1 2.09558 -1.14585 0.103713
1 1.26114 -0.68952 -1.29013
18
iterationCount: 13, previousEnergy: -1460.154877, currentEnergy: -1460.168634, stepSize: 0.022352
6 0.0312899 -1.34531 0.205514
6 -1.14947 -0.699725 -0.205526
6 -1.18068 0.645586 0.205503
6 -0.0312899 1.34531 -0.205514
6 1.14947 0.699725 0.205526
6 1.18068 -0.645586 -0.205503
1 0.0334046 -1.43768 1.28829
1 0.0555483 -2.38989 -0.101367
1 -1.22834 -0.747797 -1.28829
1 -2.04196 -1.24301 0.101358
1 -2.09746 1.14688 -0.10138
1 -1.26181 0.689885 1.28829
1 -0.0334046 1.43768 -1.28829
1 -0.0555483 2.38989 0.101367
1 2.04196 1.24301 -0.101358
1 1.22834 0.747797 1.28829
1 2.09746 -1.14688 0.10138
1 1.26181 -0.689885 -1.28829
18
iterationCount: 13, previousEnergy: -1460.168634, currentEnergy: -1460.168634, stepSize: 0.027940
6 0.0312899 -1.34531 0.205514
6 -1.14947 -0.699725 -0.205526
6 -1.18068 0.645586 0.205503
6 -0.0312899 1.34531 -0.205514
6 1.14947 0.699725 0.205526
6 1.18068 -0.645586 -0.205503
1 0.0334046 -1.43768 1.28829
1 0.0555483 -2.38989 -0.101367
1 -1.22834 -0.747797 -1.28829
1 -2.04196 -1.24301 0.101358
1 -2.09746 1.14688 -0.10138
1 -1.26181 0.689885 1.28829
1 -0.0334046 1.43768 -1.28829
1 -0.0555483 2.38989 0.101367
1 2.04196 1.24301 -0.101358
1 1.22834 0.747797 1.28829
1 2.09746 -1.14688 0.10138
1 1.26181 -0.689885 -1.28829
18
iterationCount: 14, previousEnergy: -1460.168634, currentEnergy: -1460.168834, stepSize: 0.027940
6 0.0312965 -1.34985 0.210937
6 -1.15328 -0.702106 -0.21093
6 -1.18473 0.647747 0.210947
6 -0.0312965 1.34985 -0.210937
6 1.15328 0.702106 0.21093
6 1.18473 -0.647747 -0.210947
1 0.0333725 -1.43624 1.28684
1 0.0554025 -2.38359 -0.103575
1 -1.22711 -0.747045 -1.28685
1 -2.03658 -1.23974 0.103569
1 -2.09192 1.14385 -0.103584
1 -1.26054 0.689193 1.28683
1 -0.0333725 1.43624 -1.28684
1 -0.0554025 2.38359 0.103575
1 2.03658 1.23974 -0.103569
1 1.22711 0.747045 1.28685
1 2.09192 -1.14385 0.103584
1 1.26054 -0.689193 -1.28683
18
iterationCount: 14, previousEnergy: -1460.168834, currentEnergy: -1460.168834, stepSize: 0.034925
6 0.0312965 -1.34985 0.210937
6 -1.15328 -0.702106 -0.21093
6 -1.18473 0.647747 0.210947
6 -0.0312965 1.34985 -0.210937
6 1.15328 0.702106 0.21093
6 1.18473 -0.647747 -0.210947
1 0.0333725 -1.43624 1.28684
1 0.0554025 -2.38359 -0.103575
1 -1.22711 -0.747045 -1.28685
1 -2.03658 -1.23974 0.103569
1 -2.09192 1.14385 -0.103584
1 -1.26054 0.689193 1.28683
1 -0.0333725 1.43624 -1.28684
1 -0.0554025 2.38359 0.103575
1 2.03658 1.23974 -0.103569
1 1.22711 0.747045 1.28685
1 2.09192 -1.14385 0.103584
1 1.26054 -0.689193 -1.28683
18
iterationCount: 15, previousEnergy: -1460.168834, currentEnergy: -1460.162787, stepSize: 0.034925
6 0.0312336 -1.33967 0.205311
6 -1.1447 -0.696777 -0.205341
6 -1.17569 0.642895 0.205281
6 -0.0312336 1.33967 -0.205311
6 1.1447 0.696777 0.205341
6 1.17569 -0.642895 -0.205281
1 0.0333558 -1.4356 1.29087
1 0.0554249 -2.38473 -0.106553
1 -1.22656 -0.746714 -1.29086
1 -2.03754 -1.24033 0.106538
1 -2.09294 1.14441 -0.10657
1 -1.25998 0.688891 1.29087
1 -0.0333558 1.4356 -1.29087
1 -0.0554249 2.38473 0.106553
1 2.03754 1.24033 -0.106538
1 1.22656 0.746714 1.29086
1 2.09294 -1.14441 0.10657
1 1.25998 -0.688891 -1.29087
18
iterationCount: 16, previousEnergy: -1460.168834, currentEnergy: -1460.190218, stepSize: 0.017462
6 0.031265 -1.34476 0.208124
6 -1.14899 -0.699442 -0.208136
6 -1.18021 0.645321 0.208114
6 -0.031265 1.34476 -0.208124
6 1.14899 0.699442 0.208136
6 1.18021 -0.645321 -0.208114
1 0.0333642 -1.43592 1.28885
1 0.0554137 -2.38416 -0.105064
1 -1.22684 -0.746879 -1.28886
1 -2.03706 -1.24004 0.105054
1 -2.09243 1.14413 -0.105077
1 -1.26026 0.689042 1.28885
1 -0.0333642 1.43592 -1.28885
1 -0.0554137 2.38416 0.105064
1 2.03706 1.24004 -0.105054
1 1.22684 0.746879 1.28886
1 2.09243 -1.14413 0.105077
1 1.26026 -0.689042 -1.28885
18
iterationCount: 16, previousEnergy: -1460.190218, currentEnergy: -1460.190218, stepSize: 0.021828
6 0.031265 -1.34476 0.208124
6 -1.14899 -0.699442 -0.208136
6 -1.18021 0.645321 0.208114
6 -0.031265 1.34476 -0.208124
6 1.14899 0.699442 0.208136
6 1.18021 -0.645321 -0.208114
1 0.0333642 -1.43592 1.28885
1 0.0554137 -2.38416 -0.105064
1 -1.22684 -0.746879 -1.28886
1 -2.03706 -1.24004 0.105054
1 -2.09243 1.14413 -0.105077
1 -1.26026 0.689042 1.28885
1 -0.0333642 1.43592 -1.28885
1 -0.0554137 2.38416 0.105064
1 2.03706 1.24004 -0.105054
1 1.22684 0.746879 1.28886
1 2.09243 -1.14413 0.105077
1 1.26026 -0.689042 -1.28885
18
iterationCount: 17, previousEnergy: -1460.190218, currentEnergy: -1460.196447, stepSize: 0.021828
6 0.0311918 -1.34575 0.211131
6 -1.14977 -0.699974 -0.211124
6 -1.18114 0.645779 0.211142
6 -0.0311918 1.34575 -0.211131
6 1.14977 0.699974 0.211124
6 1.18114 -0.645779 -0.211142
1 0.0333243 -1.43416 1.28917
1 0.0553043 -2.37945 -0.108681
1 -1.22533 -0.745961 -1.28919
1 -2.03305 -1.2376 0.108674
1 -2.08829 1.14186 -0.10869
1 -1.25871 0.688197 1.28915
1 -0.0333243 1.43416 -1.28917
1 -0.0553043 2.37945 0.108681
1 2.03305 1.2376 -0.108674
1 1.22533 0.745961 1.28919
1 2.08829 -1.14186 0.10869
1 1.25871 -0.688197 -1.28915
18
iterationCount: 17, previousEnergy: -1460.196447, currentEnergy: -1460.196447, stepSize: 0.027285
6 0.0311918 -1.34575 0.211131
6 -1.14977 -0.699974 -0.211124
6 -1.18114 0.645779 0.211142
6 -0.0311918 1.34575 -0.211131
6 1.14977 0.699974 0.211124
6 1.18114 -0.645779 -0.211142
1 0.0333243 -1.43416 1.28917
1 0.0553043 -2.37945 -0.108681
1 -1.22533 -0.745961 -1.28919
1 -2.03305 -1.2376 0.108674
1 -2.08829 1.14186 -0.10869
1 -1.25871 0.688197 1.28915
1 -0.0333243 1.43416 -1.28917
1 -0.0553043 2.37945 0.108681
1 2.03305 1.2376 -0.108674
1 1.22533 0.745961 1.28919
1 2.08829 -1.14186 0.10869
1 1.25871 -0.688197 -1.28915
18
iterationCount: 18, previousEnergy: -1460.196447, currentEnergy: -1460.182733, stepSize: 0.027285
6 0.0313153 -1.33874 0.207187
6 -1.14398 -0.696272 -0.207239
6 -1.1748 0.642468 0.207132
6 -0.0313153 1.33874 -0.207187
6 1.14398 0.696272 0.207239
6 1.1748 -0.642468 -0.207132
1 0.0332997 -1.43325 1.29218
1 0.0553074 -2.37986 -0.111842
1 -1.22456 -0.745488 -1.29217
1 -2.03336 -1.23779 0.111821
1 -2.08869 1.14207 -0.111865
1 -1.25792 0.687766 1.29219
1 -0.0332997 1.43325 -1.29218
1 -0.0553074 2.37986 0.111842
1 2.03336 1.23779 -0.111821
1 1.22456 0.745488 1.29217
1 2.08869 -1.14207 0.111865
1 1.25792 -0.687766 -1.29219
18
iterationCount: 19, previousEnergy: -1460.196447, currentEnergy: -1460.201413, stepSize: 0.013642
6 0.0312536 -1.34225 0.209159
6 -1.14687 -0.698123 -0.209181
6 -1.17797 0.644124 0.209137
6 -0.0312536 1.34225 -0.209159
6 1.14687 0.698123 0.209181
6 1.17797 -0.644124 -0.209137
1 0.033312 -1.43371 1.29067
1 0.0553058 -2.37966 -0.110261
1 -1.22495 -0.745724 -1.29068
1 -2.03321 -1.2377 0.110248
1 -2.08849 1.14197 -0.110278
1 -1.25831 0.687982 1.29067
1 -0.033312 1.43371 -1.29067
1 -0.0553058 2.37966 0.110261
1 2.03321 1.2377 -0.110248
1 1.22495 0.745724 1.29068
1 2.08849 -1.14197 0.110278
1 1.25831 -0.687982 -1.29067
18
iterationCount: 19, previousEnergy: -1460.201413, currentEnergy: -1460.201413, stepSize: 0.017053
6 0.0312536 -1.34225 0.209159
6 -1.14687 -0.698123 -0.209181
6 -1.17797 0.644124 0.209137
6 -0.0312536 1.34225 -0.209159
6 1.14687 0.698123 0.209181
6 1.17797 -0.644124 -0.209137
1 0.033312 -1.43371 1.29067
1 0.0553058 -2.37966 -0.110261
1 -1.22495 -0.745724 -1.29068
1 -2.03321 -1.2377 0.110248
1 -2.08849 1.14197 -0.110278
1 -1.25831 0.687982 1.29067
1 -0.033312 1.43371 -1.29067
1 -0.0553058 2.37966 0.110261
1 2.03321 1.2377 -0.110248
1 1.22495 0.745724 1.29068
1 2.08849 -1.14197 0.110278
1 1.25831 -0.687982 -1.29067
18
iterationCount: 20, previousEnergy: -1460.201413, currentEnergy: -1460.199861, stepSize: 0.017053
6 0.031097 -1.34545 0.212178
6 -1.14945 -0.699835 -0.212154
6 -1.18093 0.645617 0.212208
6 -0.031097 1.34545 -0.212178
6 1.14945 0.699835 0.212154
6 1.18093 -0.645617 -0.212208
1 0.0332895 -1.43263 1.28985
1 0.0552423 -2.37679 -0.112173
1 -1.22403 -0.745164 -1.28988
1 -2.03078 -1.23622 0.112168
1 -2.08595 1.14058 -0.112179
1 -1.25736 0.687466 1.28983
1 -0.0332895 1.43263 -1.28985
1 -0.0552423 2.37679 0.112173
1 2.03078 1.23622 -0.112168
1 1.22403 0.745164 1.28988
1 2.08595 -1.14058 0.112179
1 1.25736 -0.687466 -1.28983
18
iterationCount: 21, previousEnergy: -1460.201413, currentEnergy: -1460.204679, stepSize: 0.008527
6 0.0311753 -1.34385 0.210669
6 -1.14816 -0.698979 -0.210668
6 -1.17945 0.64487 0.210673
6 -0.0311753 1.34385 -0.210669
6 1.14816 0.698979 0.210668
6 1.17945 -0.64487 -0.210673
1 0.0333007 -1.43317 1.29026
1 0.0552741 -2.37823 -0.111217
1 -1.22449 -0.745444 -1.29028
1 -2.03199 -1.23696 0.111208
1 -2.08722 1.14127 -0.111228
1 -1.25784 0.687724 1.29025
1 -0.0333007 1.43317 -1.29026
1 -0.0552741 2.37823 0.111217
1 2.03199 1.23696 -0.111208
1 1.22449 0.745444 1.29028
1 2.08722 -1.14127 0.111228
1 1.25784 -0.687724 -1.29025
18
iterationCount: 21, previousEnergy: -1460.204679, currentEnergy: -1460.204679, stepSize: 0.010658
6 0.0311753 -1.34385 0.210669
6 -1.14816 -0.698979 -0.210668
6 -1.17945 0.64487 0.210673
6 -0.0311753 1.34385 -0.210669
6 1.14816 0.698979 0.210668
6 1.17945 -0.64487 -0.210673
1 0.0333007 -1.43317 1.29026
1 0.0552741 -2.37823 -0.111217
1 -1.22449 -0.745444 -1.29028
1 -2.03199 -1.23696 0.111208
1 -2.08722 1.14127 -0.111228
1 -1.25784 0.687724 1.29025
1 -0.0333007 1.43317 -1.29026
1 -0.0552741 2.37823 0.111217
1 2.03199 1.23696 -0.111208
1 1.22449 0.745444 1.29028
1 2.08722 -1.14127 0.111228
1 1.25784 -0.687724 -1.29025
18
iterationCount: 22, previousEnergy: -1460.204679, currentEnergy: -1460.206768, stepSize: 0.010658
6 0.0312722 -1.34191 0.209874
6 -1.14661 -0.697944 -0.209902
6 -1.17766 0.64397 0.209846
6 -0.0312722 1.34191 -0.209874
6 1.14661 0.697944 0.209902
6 1.17766 -0.64397 -0.209846
1 0.0332824 -1.43246 1.29118
1 0.0552561 -2.3776 -0.113175
1 -1.22389 -0.745077 -1.29118
1 -2.03144 -1.23662 0.11316
1 -2.08668 1.14098 -0.113193
1 -1.25722 0.687388 1.29118
1 -0.0332824 1.43246 -1.29118
1 -0.0552561 2.3776 0.113175
1 2.03144 1.23662 -0.11316
1 1.22389 0.745077 1.29118
1 2.08668 -1.14098 0.113193
1 1.25722 -0.687388 -1.29118
18
iterationCount: 22, previousEnergy: -1460.206768, currentEnergy: -1460.206768, stepSize: 0.013323
6 0.0312722 -1.34191 0.209874
6 -1.14661 -0.697944 -0.209902
6 -1.17766 0.64397 0.209846
6 -0.0312722 1.34191 -0.209874
6 1.14661 0.697944 0.209902
6 1.17766 -0.64397 -0.209846
1 0.0332824 -1.43246 1.29118
1 0.0552561 -2.3776 -0.113175
1 -1.22389 -0.745077 -1.29118
1 -2.03144 -1.23662 0.11316
1 -2.08668 1.14098 -0.113193
1 -1.25722 0.687388 1.29118
1 -0.0332824 1.43246 -1.29118
1 -0.0552561 2.3776 0.113175
1 2.03144 1.23662 -0.11316
1 1.22389 0.745077 1.29118
1 2.08668 -1.14098 0.113193
1 1.25722 -0.687388 -1.29118
18
iterationCount: 23, previousEnergy: -1460.206768, currentEnergy: -1460.206161, stepSize: 0.013323
6 0.0310085 -1.3444 0.212055
6 -1.14852 -0.699304 -0.212018
6 -1.18005 0.645101 0.212098
6 -0.0310085 1.3444 -0.212055
6 1.14852 0.699304 0.212018
6 1.18005 -0.645101 -0.212098
1 0.033266 -1.4316 1.29047
1 0.0552105 -2.37544 -0.114856
1 -1.22316 -0.74463 -1.2905
1 -2.02963 -1.23552 0.114853
1 -2.08475 1.13992 -0.11486
1 -1.25646 0.686975 1.29044
1 -0.033266 1.4316 -1.29047
1 -0.0552105 2.37544 0.114856
1 2.02963 1.23552 -0.114853
1 1.22316 0.74463 1.2905
1 2.08475 -1.13992 0.11486
1 1.25646 -0.686975 -1.29044
18
iterationCount: 24, previousEnergy: -1460.206768, currentEnergy: -1460.208789, stepSize: 0.006661
6 0.0311403 -1.34316 0.210964
6 -1.14756 -0.698624 -0.21096
6 -1.17886 0.644536 0.210972
6 -0.0311403 1.34316 -0.210964
6 1.14756 0.698624 0.21096
6 1.17886 -0.644536 -0.210972
1 0.0332742 -1.43203 1.29082
1 0.0552333 -2.37652 -0.114015
1 -1.22352 -0.744853 -1.29084
1 -2.03053 -1.23607 0.114006
1 -2.08572 1.14045 -0.114026
1 -1.25684 0.687182 1.29081
1 -0.0332742 1.43203 -1.29082
1 -0.0552333 2.37652 0.114015
1 2.03053 1.23607 -0.114006
1 1.22352 0.744853 1.29084
1 2.08572 -1.14045 0.114026
1 1.25684 -0.687182 -1.29081
18
iterationCount: 24, previousEnergy: -1460.208789, currentEnergy: -1460.208789, stepSize: 0.008327
6 0.0311403 -1.34316 0.210964
6 -1.14756 -0.698624 -0.21096
6 -1.17886 0.644536 0.210972
6 -0.0311403 1.34316 -0.210964
6 1.14756 0.698624 0.21096
6 1.17886 -0.644536 -0.210972
1 0.0332742 -1.43203 1.29082
1 0.0552333 -2.37652 -0.114015
1 -1.22352 -0.744853 -1.29084
1 -2.03053 -1.23607 0.114006
1 -2.08572 1.14045 -0.114026
1 -1.25684 0.687182 1.29081
1 -0.0332742 1.43203 -1.29082
1 -0.0552333 2.37652 0.114015
1 2.03053 1.23607 -0.114006
1 1.22352 0.744853 1.29084
1 2.08572 -1.14045 0.114026
1 1.25684 -0.687182 -1.29081
18
iterationCount: 25, previousEnergy: -1460.208789, currentEnergy: -1460.210242, stepSize: 0.008327
6 0.031295 -1.34181 0.210331
6 -1.14654 -0.697886 -0.210364
6 -1.17756 0.643926 0.210296
6 -0.031295 1.34181 -0.210331
6 1.14654 0.697886 0.210364
6 1.17756 -0.643926 -0.210296
1 0.0332595 -1.43151 1.2914
1 0.0552191 -2.37608 -0.115594
1 -1.22307 -0.744579 -1.2914
1 -2.03014 -1.23583 0.115577
1 -2.08535 1.14025 -0.115613
1 -1.25638 0.686932 1.2914
1 -0.0332595 1.43151 -1.2914
1 -0.0552191 2.37608 0.115594
1 2.03014 1.23583 -0.115577
1 1.22307 0.744579 1.2914
1 2.08535 -1.14025 0.115613
1 1.25638 -0.686932 -1.2914
18
iterationCount: 25, previousEnergy: -1460.210242, currentEnergy: -1460.210242, stepSize: 0.010408
6 0.031295 -1.34181 0.210331
6 -1.14654 -0.697886 -0.210364
6 -1.17756 0.643926 0.210296
6 -0.031295 1.34181 -0.210331
6 1.14654 0.697886 0.210364
6 1.17756 -0.643926 -0.210296
1 0.0332595 -1.43151 1.2914
1 0.0552191 -2.37608 -0.115594
1 -1.22307 -0.744579 -1.2914
1 -2.03014 -1.23583 0.115577
1 -2.08535 1.14025 -0.115613
1 -1.25638 0.686932 1.2914
1 -0.0332595 1.43151 -1.2914
1 -0.0552191 2.37608 0.115594
1 2.03014 1.23583 -0.115577
1 1.22307 0.744579 1.2914
1 2.08535 -1.14025 0.115613
1 1.25638 -0.686932 -1.2914
18
iterationCount: 26, previousEnergy: -1460.210242, currentEnergy: -1460.210371, stepSize: 0.010408
6 0.0309202 -1.34357 0.211808
6 -1.14776 -0.698885 -0.211757
6 -1.17936 0.644688 0.211866
6 -0.0309202 1.34357 -0.211808
6 1.14776 0.698885 0.211757
6 1.17936 -0.644688 -0.211866
1 0.0332485 -1.43084 1.29086
1 0.0551881 -2.37447 -0.117132
1 -1.22251 -0.744231 -1.2909
1 -2.02881 -1.23502 0.117132
1 -2.08389 1.13945 -0.117134
1 -1.25578 0.68661 1.29082
1 -0.0332485 1.43084 -1.29086
1 -0.0551881 2.37447 0.117132
1 2.02881 1.23502 -0.117132
1 1.22251 0.744231 1.2909
1 2.08389 -1.13945 0.117134
1 1.25578 -0.68661 -1.29082
18
iterationCount: 26, previousEnergy: -1460.210371, currentEnergy: -1460.210371, stepSize: 0.013010
6 0.0309202 -1.34357 0.211808
6 -1.14776 -0.698885 -0.211757
6 -1.17936 0.644688 0.211866
6 -0.0309202 1.34357 -0.211808
6 1.14776 0.698885 0.211757
6 1.17936 -0.644688 -0.211866
1 0.0332485 -1.43084 1.29086
1 0.0551881 -2.37447 -0.117132
1 -1.22251 -0.744231 -1.2909
1 -2.02881 -1.23502 0.117132
1 -2.08389 1.13945 -0.117134
1 -1.25578 0.68661 1.29082
1 -0.0332485 1.43084 -1.29086
1 -0.0551881 2.37447 0.117132
1 2.02881 1.23502 -0.117132
1 1.22251 0.744231 1.2909
1 2.08389 -1.13945 0.117134
1 1.25578 -0.68661 -1.29082
18
iterationCount: 27, previousEnergy: -1460.210371, currentEnergy: -1460.210275, stepSize: 0.013010
6 0.0316023 -1.34052 0.209795
6 -1.14566 -0.697143 -0.209898
6 -1.1762 0.643368 0.209683
6 -0.0316023 1.34052 -0.209795
6 1.14566 0.697143 0.209898
6 1.1762 -0.643368 -0.209683
1 0.0332335 -1.4306 1.29195
1 0.055187 -2.375 -0.118515
1 -1.22229 -0.744101 -1.29192
1 -2.02918 -1.23526 0.118483
1 -2.08445 1.13975 -0.118552
1 -1.25558 0.686496 1.29199
1 -0.0332335 1.4306 -1.29195
1 -0.055187 2.375 0.118515
1 2.02918 1.23526 -0.118483
1 1.22229 0.744101 1.29192
1 2.08445 -1.13975 0.118552
1 1.25558 -0.686496 -1.29199
18
iterationCount: 28, previousEnergy: -1460.210371, currentEnergy: -1460.212873, stepSize: 0.006505
6 0.0312613 -1.34204 0.210801
6 -1.14671 -0.698014 -0.210828
6 -1.17778 0.644028 0.210775
6 -0.0312613 1.34204 -0.210801
6 1.14671 0.698014 0.210828
6 1.17778 -0.644028 -0.210775
1 0.033241 -1.43072 1.2914
1 0.0551876 -2.37474 -0.117824
1 -1.2224 -0.744166 -1.29141
1 -2.02899 -1.23514 0.117808
1 -2.08417 1.1396 -0.117843
1 -1.25568 0.686553 1.2914
1 -0.033241 1.43072 -1.2914
1 -0.0551876 2.37474 0.117824
1 2.02899 1.23514 -0.117808
1 1.2224 0.744166 1.29141
1 2.08417 -1.1396 0.117843
1 1.25568 -0.686553 -1.2914
18
iterationCount: 28, previousEnergy: -1460.212873, currentEnergy: -1460.212873, stepSize: 0.008132
6 0.0312613 -1.34204 0.210801
6 -1.14671 -0.698014 -0.210828
6 -1.17778 0.644028 0.210775
6 -0.0312613 1.34204 -0.210801
6 1.14671 0.698014 0.210828
6 1.17778 -0.644028 -0.210775
1 0.033241 -1.43072 1.2914
1 0.0551876 -2.37474 -0.117824
1 -1.2224 -0.744166 -1.29141
1 -2.02899 -1.23514 0.117808
1 -2.08417 1.1396 -0.117843
1 -1.25568 0.686553 1.2914
1 -0.033241 1.43072 -1.2914
1 -0.0551876 2.37474 0.117824
1 2.02899 1.23514 -0.117808
1 1.2224 0.744166 1.29141
1 2.08417 -1.1396 0.117843
1 1.25568 -0.686553 -1.2914
18
iterationCount: 29, previousEnergy: -1460.212873, currentEnergy: -1460.214068, stepSize: 0.008132
6 0.0309406 -1.34241 0.211194
6 -1.1468 -0.698271 -0.211153
6 -1.17832 0.644142 0.211242
6 -0.0309406 1.34241 -0.211194
6 1.1468 0.698271 0.211153
6 1.17832 -0.644142 -0.211242
1 0.0332322 -1.43019 1.29128
1 0.0551694 -2.37374 -0.119527
1 -1.22195 -0.743891 -1.29131
1 -2.02818 -1.23464 0.119524
1 -2.08326 1.1391 -0.11953
1 -1.25521 0.686299 1.29124
1 -0.0332322 1.43019 -1.29128
1 -0.0551694 2.37374 0.119527
1 2.02818 1.23464 -0.119524
1 1.22195 0.743891 1.29131
1 2.08326 -1.1391 0.11953
1 1.25521 -0.686299 -1.29124
18
iterationCount: 29, previousEnergy: -1460.214068, currentEnergy: -1460.214068, stepSize: 0.010164
6 0.0309406 -1.34241 0.211194
6 -1.1468 -0.698271 -0.211153
6 -1.17832 0.644142 0.211242
6 -0.0309406 1.34241 -0.211194
6 1.1468 0.698271 0.211153
6 1.17832 -0.644142 -0.211242
1 0.0332322 -1.43019 1.29128
1 0.0551694 -2.37374 -0.119527
1 -1.22195 -0.743891 -1.29131
1 -2.02818 -1.23464 0.119524
1 -2.08326 1.1391 -0.11953
1 -1.25521 0.686299 1.29124
1 -0.0332322 1.43019 -1.29128
1 -0.0551694 2.37374 0.119527
1 2.02818 1.23464 -0.119524
1 1.22195 0.743891 1.29131
1 2.08326 -1.1391 0.11953
1 1.25521 -0.686299 -1.29124
