18
iterationCount: 0, previousEnergy: -1455.482868, currentEnergy: -1449.310120, stepSize: 0.750000
6 0.460217 0.117215 -0.000189099
6 -0.2041 1.23104 -0.0002056
6 0.431452 2.36126 -0.000199039
1 -1.08021 1.21972 0.833503
1 -1.08018 1.21971 -0.833966
6 1.72731 2.37799 -0.000188882
1 -0.016413 3.11367 0.834243
1 -0.0164256 3.1137 -0.834621
6 2.39155 1.26418 -0.000223447
1 2.15577 3.14158 0.834166
1 2.15577 3.14163 -0.834567
6 1.75597 0.133967 -0.000183561
1 3.26763 1.27538 0.833508
1 3.26759 1.27538 -0.833999
1 2.2039 -0.618538 0.834251
1 2.2039 -0.618573 -0.834667
1 0.0317365 -0.646383 -0.834614
1 0.0317599 -0.646328 0.834273
18
iterationCount: 1, previousEnergy: -1455.482868, currentEnergy: -1457.443564, stepSize: 0.375000
6 0.404754 0.0189774 -0.00018955
6 -0.31694 1.22953 -0.0002128
6 0.373521 2.4581 -0.00019952
1 -1.0935 1.21955 0.847231
1 -1.09347 1.21954 -0.847693
6 1.78275 2.47623 -0.000199441
1 -0.0231015 3.12481 0.847896
1 -0.0231128 3.12484 -0.84827
6 2.50438 1.26565 -0.000226724
1 2.16219 3.15291 0.847833
1 2.16218 3.15296 -0.848223
6 1.81392 0.0370936 -0.00019678
1 3.28092 1.27555 0.847239
1 3.28088 1.27555 -0.84773
1 2.21058 -0.629664 0.847881
1 2.21057 -0.629692 -0.848283
1 0.0253433 -0.657687 -0.848262
1 0.025365 -0.657634 0.847926
18
iterationCount: 1, previousEnergy: -1457.443564, currentEnergy: -1457.443564, stepSize: 0.468750
6 0.404754 0.0189774 -0.00018955
6 -0.31694 1.22953 -0.0002128
6 0.373521 2.4581 -0.00019952
1 -1.0935 1.21955 0.847231
1 -1.09347 1.21954 -0.847693
6 1.78275 2.47623 -0.000199441
1 -0.0231015 3.12481 0.847896
1 -0.0231128 3.12484 -0.84827
6 2.50438 1.26565 -0.000226724
1 2.16219 3.15291 0.847833
1 2.16218 3.15296 -0.848223
6 1.81392 0.0370936 -0.00019678
1 3.28092 1.27555 0.847239
1 3.28088 1.27555 -0.84773
1 2.21058 -0.629664 0.847881
1 2.21057 -0.629692 -0.848283
1 0.0253433 -0.657687 -0.848262
1 0.025365 -0.657634 0.847926
18
iterationCount: 2, previousEnergy: -1457.443564, currentEnergy: -1452.034699, stepSize: 0.468750
6 0.352215 -0.0739941 -0.000190083
6 -0.423283 1.22805 -0.000220499
6 0.318758 2.54986 -0.000199733
1 -1.0259 1.22042 0.78898
1 -1.02587 1.22042 -0.789433
6 1.83518 2.56922 -0.000214799
1 0.0113817 3.06704 0.789539
1 0.0113732 3.06706 -0.789912
6 2.61073 1.26712 -0.00022708
1 2.12919 3.09428 0.789507
1 2.12918 3.09431 -0.789884
6 1.86881 -0.0547143 -0.000216486
1 3.21333 1.27469 0.788984
1 3.21329 1.27469 -0.789471
1 2.17609 -0.571873 0.789511
1 2.17607 -0.571887 -0.789897
1 0.0583303 -0.599056 -0.789911
1 0.0583476 -0.599012 0.789577
18
iterationCount: 3, previousEnergy: -1457.443564, currentEnergy: -1458.318584, stepSize: 0.234375
6 0.378484 -0.0275083 -0.000189816
6 -0.370111 1.22879 -0.00021665
6 0.346139 2.50398 -0.000199626
1 -1.0597 1.21999 0.818105
1 -1.05967 1.21998 -0.818563
6 1.80897 2.52273 -0.00020712
1 -0.00585989 3.09592 0.818718
1 -0.00586983 3.09595 -0.819091
6 2.55756 1.26638 -0.000226902
1 2.14569 3.1236 0.81867
1 2.14568 3.12363 -0.819054
6 1.84137 -0.00881035 -0.000206633
1 3.24712 1.27512 0.818111
1 3.24709 1.27512 -0.8186
1 2.19333 -0.600768 0.818696
1 2.19332 -0.600789 -0.81909
1 0.0418368 -0.628372 -0.819087
1 0.0418563 -0.628323 0.818751
18
iterationCount: 3, previousEnergy: -1458.318584, currentEnergy: -1458.318584, stepSize: 0.292969
6 0.378484 -0.0275083 -0.000189816
6 -0.370111 1.22879 -0.00021665
6 0.346139 2.50398 -0.000199626
1 -1.0597 1.21999 0.818105
1 -1.05967 1.21998 -0.818563
6 1.80897 2.52273 -0.00020712
1 -0.00585989 3.09592 0.818718
1 -0.00586983 3.09595 -0.819091
6 2.55756 1.26638 -0.000226902
1 2.14569 3.1236 0.81867
1 2.14568 3.12363 -0.819054
6 1.84137 -0.00881035 -0.000206633
1 3.24712 1.27512 0.818111
1 3.24709 1.27512 -0.8186
1 2.19333 -0.600768 0.818696
1 2.19332 -0.600789 -0.81909
1 0.0418368 -0.628372 -0.819087
1 0.0418563 -0.628323 0.818751
18
iterationCount: 4, previousEnergy: -1458.318584, currentEnergy: -1457.519705, stepSize: 0.292969
6 0.422348 0.0500358 -0.000192335
6 -0.280902 1.23006 -0.000212459
6 0.391845 2.42742 -0.000201324
1 -1.06353 1.21994 0.832396
1 -1.0635 1.21993 -0.832855
6 1.76519 2.44515 -0.000202961
1 -0.00788307 3.09945 0.833032
1 -0.00789332 3.09948 -0.833405
6 2.46835 1.26515 -0.000226457
1 2.14761 3.12715 0.832972
1 2.14761 3.12719 -0.833359
6 1.79557 0.0677587 -0.0002013
1 3.25096 1.27517 0.832402
1 3.25092 1.27517 -0.832889
1 2.19536 -0.604298 0.833023
1 2.19535 -0.604323 -0.833423
1 0.0399032 -0.631937 -0.833388
1 0.0399234 -0.631887 0.833052
18
iterationCount: 5, previousEnergy: -1458.318584, currentEnergy: -1459.007591, stepSize: 0.146484
6 0.400416 0.0112638 -0.000191075
6 -0.325507 1.22943 -0.000214554
6 0.368992 2.4657 -0.000200475
1 -1.06162 1.21996 0.825251
1 -1.06158 1.21996 -0.825709
6 1.78708 2.48394 -0.00020504
1 -0.00687148 3.09768 0.825875
1 -0.00688158 3.09771 -0.826248
6 2.51295 1.26577 -0.00022668
1 2.14665 3.12537 0.825821
1 2.14664 3.12541 -0.826207
6 1.81847 0.0294741 -0.000203967
1 3.24904 1.27515 0.825256
1 3.249 1.27515 -0.825745
1 2.19435 -0.602533 0.82586
1 2.19434 -0.602556 -0.826257
1 0.04087 -0.630154 -0.826237
1 0.0408898 -0.630105 0.825902
18
iterationCount: 5, previousEnergy: -1459.007591, currentEnergy: -1459.007591, stepSize: 0.183105
6 0.400416 0.0112638 -0.000191075
6 -0.325507 1.22943 -0.000214554
6 0.368992 2.4657 -0.000200475
1 -1.06162 1.21996 0.825251
1 -1.06158 1.21996 -0.825709
6 1.78708 2.48394 -0.00020504
1 -0.00687148 3.09768 0.825875
1 -0.00688158 3.09771 -0.826248
6 2.51295 1.26577 -0.00022668
1 2.14665 3.12537 0.825821
1 2.14664 3.12541 -0.826207
6 1.81847 0.0294741 -0.000203967
1 3.24904 1.27515 0.825256
1 3.249 1.27515 -0.825745
1 2.19435 -0.602533 0.82586
1 2.19434 -0.602556 -0.826257
1 0.04087 -0.630154 -0.826237
1 0.0408898 -0.630105 0.825902
18
iterationCount: 6, previousEnergy: -1459.007591, currentEnergy: -1458.438389, stepSize: 0.183105
6 0.387711 -0.0112938 -0.000189669
6 -0.351178 1.22896 -0.000215933
6 0.355823 2.48811 -0.000199392
1 -1.02643 1.22042 0.804899
1 -1.0264 1.22041 -0.805355
6 1.7997 2.50652 -0.000206833
1 0.0110115 3.06782 0.805466
1 0.0110017 3.06785 -0.805841
6 2.53864 1.26617 -0.00022588
1 2.12954 3.09506 0.805442
1 2.12953 3.09509 -0.805826
6 1.83172 0.00707594 -0.000206837
1 3.21387 1.2747 0.8049
1 3.21383 1.2747 -0.805388
1 2.17646 -0.572654 0.805441
1 2.17645 -0.572675 -0.805836
1 0.0579721 -0.599853 -0.805842
1 0.0579912 -0.599805 0.805505
18
iterationCount: 7, previousEnergy: -1459.007591, currentEnergy: -1459.118894, stepSize: 0.091553
6 0.394064 -1.50017e-05 -0.000190372
6 -0.338342 1.22919 -0.000215244
6 0.362407 2.4769 -0.000199933
1 -1.04402 1.22019 0.815075
1 -1.04399 1.22018 -0.815532
6 1.79339 2.49523 -0.000205937
1 0.00206999 3.08275 0.81567
1 0.00206006 3.08278 -0.816045
6 2.52579 1.26597 -0.00022628
1 2.13809 3.11021 0.815631
1 2.13809 3.11025 -0.816016
6 1.82509 0.018275 -0.000205402
1 3.23145 1.27493 0.815078
1 3.23141 1.27492 -0.815566
1 2.1854 -0.587594 0.81565
1 2.18539 -0.587616 -0.816046
1 0.049421 -0.615004 -0.81604
1 0.0494405 -0.614955 0.815704
18
iterationCount: 7, previousEnergy: -1459.118894, currentEnergy: -1459.118894, stepSize: 0.114441
6 0.394064 -1.50017e-05 -0.000190372
6 -0.338342 1.22919 -0.000215244
6 0.362407 2.4769 -0.000199933
1 -1.04402 1.22019 0.815075
1 -1.04399 1.22018 -0.815532
6 1.79339 2.49523 -0.000205937
1 0.00206999 3.08275 0.81567
1 0.00206006 3.08278 -0.816045
6 2.52579 1.26597 -0.00022628
1 2.13809 3.11021 0.815631
1 2.13809 3.11025 -0.816016
6 1.82509 0.018275 -0.000205402
1 3.23145 1.27493 0.815078
1 3.23141 1.27492 -0.815566
1 2.1854 -0.587594 0.81565
1 2.18539 -0.587616 -0.816046
1 0.049421 -0.615004 -0.81604
1 0.0494405 -0.614955 0.815704
18
iterationCount: 8, previousEnergy: -1459.118894, currentEnergy: -1459.042116, stepSize: 0.114441
6 0.411172 0.0302252 -0.000191577
6 -0.303372 1.22979 -0.000213503
6 0.380156 2.44692 -0.000200723
1 -1.04308 1.22021 0.823512
1 -1.04305 1.2202 -0.82397
6 1.77637 2.46495 -0.000204663
1 0.00250522 3.08212 0.824092
1 0.00249528 3.08215 -0.824466
6 2.49082 1.26544 -0.000226118
1 2.13766 3.10955 0.824036
1 2.13766 3.10959 -0.824422
6 1.80726 0.0482376 -0.000203903
1 3.23052 1.27492 0.823515
1 3.23048 1.27492 -0.824003
1 2.18497 -0.586968 0.824079
1 2.18496 -0.586991 -0.824477
1 0.0498437 -0.614348 -0.824441
1 0.0498633 -0.6143 0.824105
18
iterationCount: 9, previousEnergy: -1459.118894, currentEnergy: -1459.255923, stepSize: 0.057220
6 0.402618 0.0151051 -0.000190975
6 -0.320857 1.22949 -0.000214373
6 0.371282 2.46191 -0.000200328
1 -1.04355 1.2202 0.819293
1 -1.04352 1.22019 -0.819751
6 1.78488 2.48009 -0.0002053
1 0.00228761 3.08244 0.819881
1 0.00227767 3.08247 -0.820255
6 2.50831 1.2657 -0.000226199
1 2.13788 3.10988 0.819834
1 2.13787 3.10992 -0.820219
6 1.81618 0.0332563 -0.000204653
1 3.23099 1.27492 0.819297
1 3.23095 1.27492 -0.819784
1 2.18519 -0.587281 0.819865
1 2.18518 -0.587303 -0.820261
1 0.0496324 -0.614676 -0.82024
1 0.0496519 -0.614627 0.819904
18
iterationCount: 9, previousEnergy: -1459.255923, currentEnergy: -1459.255923, stepSize: 0.071526
6 0.402618 0.0151051 -0.000190975
6 -0.320857 1.22949 -0.000214373
6 0.371282 2.46191 -0.000200328
1 -1.04355 1.2202 0.819293
1 -1.04352 1.22019 -0.819751
6 1.78488 2.48009 -0.0002053
1 0.00228761 3.08244 0.819881
1 0.00227767 3.08247 -0.820255
6 2.50831 1.2657 -0.000226199
1 2.13788 3.10988 0.819834
1 2.13787 3.10992 -0.820219
6 1.81618 0.0332563 -0.000204653
1 3.23099 1.27492 0.819297
1 3.23095 1.27492 -0.819784
1 2.18519 -0.587281 0.819865
1 2.18518 -0.587303 -0.820261
1 0.0496324 -0.614676 -0.82024
1 0.0496519 -0.614627 0.819904
18
iterationCount: 10, previousEnergy: -1459.255923, currentEnergy: -1459.275984, stepSize: 0.071526
6 0.39932 0.00923109 -0.000190428
6 -0.327516 1.22926 -0.000214604
6 0.367953 2.46788 -0.000199903
1 -1.02879 1.22039 0.817041
1 -1.02875 1.22039 -0.817499
6 1.78809 2.486 -0.000205283
1 0.00976036 3.07001 0.817594
1 0.0097505 3.07004 -0.817968
6 2.51497 1.26585 -0.000226078
1 2.13073 3.09727 0.817569
1 2.13072 3.09731 -0.817954
6 1.81959 0.0273224 -0.000205038
1 3.21622 1.27474 0.817042
1 3.21618 1.27474 -0.817529
1 2.17771 -0.574851 0.817575
1 2.1777 -0.574873 -0.817971
1 0.0567764 -0.602075 -0.817967
1 0.0567959 -0.602027 0.81763
18
iterationCount: 10, previousEnergy: -1459.275984, currentEnergy: -1459.275984, stepSize: 0.089407
6 0.39932 0.00923109 -0.000190428
6 -0.327516 1.22926 -0.000214604
6 0.367953 2.46788 -0.000199903
1 -1.02879 1.22039 0.817041
1 -1.02875 1.22039 -0.817499
6 1.78809 2.486 -0.000205283
1 0.00976036 3.07001 0.817594
1 0.0097505 3.07004 -0.817968
6 2.51497 1.26585 -0.000226078
1 2.13073 3.09727 0.817569
1 2.13072 3.09731 -0.817954
6 1.81959 0.0273224 -0.000205038
1 3.21622 1.27474 0.817042
1 3.21618 1.27474 -0.817529
1 2.17771 -0.574851 0.817575
1 2.1777 -0.574873 -0.817971
1 0.0567764 -0.602075 -0.817967
1 0.0567959 -0.602027 0.81763
18
iterationCount: 11, previousEnergy: -1459.275984, currentEnergy: -1459.136597, stepSize: 0.089407
6 0.412625 0.032627 -0.000191337
6 -0.300126 1.23006 -0.000213249
6 0.381473 2.44428 -0.000200451
1 -1.03004 1.22038 0.827757
1 -1.03 1.22037 -0.828215
6 1.77505 2.46246 -0.000204615
1 0.00908714 3.07125 0.828262
1 0.00907727 3.07128 -0.828636
6 2.48758 1.26533 -0.000225733
1 2.13135 3.09847 0.828189
1 2.13134 3.09851 -0.828575
6 1.8058 0.0507997 -0.000204302
1 3.21748 1.27476 0.827758
1 3.21744 1.27476 -0.828245
1 2.17839 -0.576089 0.828251
1 2.17838 -0.576112 -0.828649
1 0.0561501 -0.603287 -0.828584
1 0.0561698 -0.603239 0.828247
18
iterationCount: 12, previousEnergy: -1459.275984, currentEnergy: -1459.337388, stepSize: 0.044703
6 0.405973 0.020929 -0.000190882
6 -0.313821 1.22966 -0.000213927
6 0.374713 2.45608 -0.000200177
1 -1.02941 1.22038 0.822399
1 -1.02938 1.22038 -0.822857
6 1.78157 2.47423 -0.000204949
1 0.00942375 3.07063 0.822928
1 0.00941388 3.07066 -0.823302
6 2.50128 1.26559 -0.000225905
1 2.13104 3.09787 0.822879
1 2.13103 3.09791 -0.823264
6 1.81269 0.0390611 -0.00020467
1 3.21685 1.27475 0.8224
1 3.21681 1.27475 -0.822887
1 2.17805 -0.57547 0.822913
1 2.17804 -0.575492 -0.82331
1 0.0564633 -0.602681 -0.823275
1 0.0564828 -0.602633 0.822939
18
iterationCount: 12, previousEnergy: -1459.337388, currentEnergy: -1459.337388, stepSize: 0.055879
6 0.405973 0.020929 -0.000190882
6 -0.313821 1.22966 -0.000213927
6 0.374713 2.45608 -0.000200177
1 -1.02941 1.22038 0.822399
1 -1.02938 1.22038 -0.822857
6 1.78157 2.47423 -0.000204949
1 0.00942375 3.07063 0.822928
1 0.00941388 3.07066 -0.823302
6 2.50128 1.26559 -0.000225905
1 2.13104 3.09787 0.822879
1 2.13103 3.09791 -0.823264
6 1.81269 0.0390611 -0.00020467
1 3.21685 1.27475 0.8224
1 3.21681 1.27475 -0.822887
1 2.17805 -0.57547 0.822913
1 2.17804 -0.575492 -0.82331
1 0.0564633 -0.602681 -0.823275
1 0.0564828 -0.602633 0.822939
18
iterationCount: 13, previousEnergy: -1459.337388, currentEnergy: -1459.319780, stepSize: 0.055879
6 0.400032 0.0105086 -0.000190268
6 -0.326019 1.22906 -0.000214382
6 0.368899 2.46689 -0.000199731
1 -1.02085 1.2205 0.821941
1 -1.02081 1.22049 -0.822399
6 1.78723 2.4848 -0.000204892
1 0.0137399 3.06345 0.822448
1 0.0137301 3.06348 -0.822823
6 2.51349 1.26588 -0.000226054
1 2.12692 3.09061 0.822448
1 2.12691 3.09065 -0.822833
6 1.81879 0.0284032 -0.000204883
1 3.20829 1.27464 0.821939
1 3.20825 1.27464 -0.822427
1 2.17373 -0.568287 0.82243
1 2.17372 -0.568309 -0.822827
1 0.0605785 -0.595429 -0.822838
1 0.060598 -0.59538 0.822501
18
iterationCount: 14, previousEnergy: -1459.337388, currentEnergy: -1459.361091, stepSize: 0.027940
6 0.403002 0.0157188 -0.000190575
6 -0.31992 1.22936 -0.000214154
6 0.371806 2.46149 -0.000199954
1 -1.02513 1.22044 0.82217
1 -1.02509 1.22043 -0.822628
6 1.7844 2.47952 -0.000204921
1 0.0115818 3.06704 0.822688
1 0.011572 3.06707 -0.823063
6 2.50738 1.26574 -0.00022598
1 2.12898 3.09424 0.822663
1 2.12897 3.09428 -0.823049
6 1.81574 0.0337321 -0.000204776
1 3.21257 1.2747 0.822169
1 3.21253 1.2747 -0.822657
1 2.17589 -0.571878 0.822671
1 2.17588 -0.571901 -0.823068
1 0.0585209 -0.599055 -0.823057
1 0.0585404 -0.599007 0.82272
18
iterationCount: 14, previousEnergy: -1459.361091, currentEnergy: -1459.361091, stepSize: 0.034925
6 0.403002 0.0157188 -0.000190575
6 -0.31992 1.22936 -0.000214154
6 0.371806 2.46149 -0.000199954
1 -1.02513 1.22044 0.82217
1 -1.02509 1.22043 -0.822628
6 1.7844 2.47952 -0.000204921
1 0.0115818 3.06704 0.822688
1 0.011572 3.06707 -0.823063
6 2.50738 1.26574 -0.00022598
1 2.12898 3.09424 0.822663
1 2.12897 3.09428 -0.823049
6 1.81574 0.0337321 -0.000204776
1 3.21257 1.2747 0.822169
1 3.21253 1.2747 -0.822657
1 2.17589 -0.571878 0.822671
1 2.17588 -0.571901 -0.823068
1 0.0585209 -0.599055 -0.823057
1 0.0585404 -0.599007 0.82272
18
iterationCount: 15, previousEnergy: -1459.361091, currentEnergy: -1459.368335, stepSize: 0.034925
6 0.407069 0.0226341 -0.000190673
6 -0.311412 1.22999 -0.000213731
6 0.375567 2.45406 -0.000199953
1 -1.02173 1.22048 0.827553
1 -1.02169 1.22048 -0.828011
6 1.78069 2.47241 -0.000204681
1 0.0132796 3.06429 0.828021
1 0.0132698 3.06432 -0.828395
6 2.49887 1.2655 -0.000225745
1 2.12733 3.0914 0.827953
1 2.12733 3.09144 -0.828339
6 1.81163 0.0409641 -0.000204652
1 3.20918 1.27466 0.827551
1 3.20913 1.27466 -0.828039
1 2.1742 -0.569127 0.828007
1 2.17419 -0.56915 -0.828404
1 0.0601604 -0.596225 -0.828343
1 0.0601801 -0.596177 0.828006
18
iterationCount: 15, previousEnergy: -1459.368335, currentEnergy: -1459.368335, stepSize: 0.043656
6 0.407069 0.0226341 -0.000190673
6 -0.311412 1.22999 -0.000213731
6 0.375567 2.45406 -0.000199953
1 -1.02173 1.22048 0.827553
1 -1.02169 1.22048 -0.828011
6 1.78069 2.47241 -0.000204681
1 0.0132796 3.06429 0.828021
1 0.0132698 3.06432 -0.828395
6 2.49887 1.2655 -0.000225745
1 2.12733 3.0914 0.827953
1 2.12733 3.09144 -0.828339
6 1.81163 0.0409641 -0.000204652
1 3.20918 1.27466 0.827551
1 3.20913 1.27466 -0.828039
1 2.1742 -0.569127 0.828007
1 2.17419 -0.56915 -0.828404
1 0.0601604 -0.596225 -0.828343
1 0.0601801 -0.596177 0.828006
18
iterationCount: 16, previousEnergy: -1459.368335, currentEnergy: -1459.374854, stepSize: 0.043656
6 0.401789 0.0138464 -0.000190231
6 -0.322354 1.22867 -0.000214111
6 0.371183 2.46409 -0.000199643
1 -1.01621 1.22057 0.826276
1 -1.01618 1.22056 -0.826734
6 1.78512 2.48166 -0.000204587
1 0.0160432 3.05967 0.826748
1 0.0160334 3.0597 -0.827123
6 2.50983 1.26587 -0.000225979
1 2.12472 3.08678 0.826779
1 2.12471 3.08682 -0.827165
6 1.81685 0.0314062 -0.000204716
1 3.20366 1.27458 0.826272
1 3.20362 1.27458 -0.82676
1 2.17143 -0.564501 0.826731
1 2.17142 -0.564523 -0.827128
1 0.0627749 -0.591607 -0.827164
1 0.0627946 -0.591558 0.826827
18
iterationCount: 16, previousEnergy: -1459.374854, currentEnergy: -1459.374854, stepSize: 0.054570
6 0.401789 0.0138464 -0.000190231
6 -0.322354 1.22867 -0.000214111
6 0.371183 2.46409 -0.000199643
1 -1.01621 1.22057 0.826276
1 -1.01618 1.22056 -0.826734
6 1.78512 2.48166 -0.000204587
1 0.0160432 3.05967 0.826748
1 0.0160334 3.0597 -0.827123
6 2.50983 1.26587 -0.000225979
1 2.12472 3.08678 0.826779
1 2.12471 3.08682 -0.827165
6 1.81685 0.0314062 -0.000204716
1 3.20366 1.27458 0.826272
1 3.20362 1.27458 -0.82676
1 2.17143 -0.564501 0.826731
1 2.17142 -0.564523 -0.827128
1 0.0627749 -0.591607 -0.827164
1 0.0627946 -0.591558 0.826827
18
iterationCount: 17, previousEnergy: -1459.374854, currentEnergy: -1459.336352, stepSize: 0.054570
6 0.40981 0.0264031 -0.000190576
6 -0.305635 1.23166 -0.000213436
6 0.376813 2.44849 -0.000199814
1 -1.0171 1.22054 0.832862
1 -1.01706 1.22053 -0.833321
6 1.77922 2.46793 -0.000204443
1 0.0156002 3.06052 0.833244
1 0.0155904 3.06054 -0.833619
6 2.49306 1.26527 -0.000225513
1 2.12506 3.08746 0.833047
1 2.12506 3.0875 -0.833433
6 1.80913 0.0458074 -0.000204572
1 3.20455 1.27462 0.83286
1 3.20451 1.27462 -0.833348
1 2.17188 -0.565356 0.833233
1 2.17186 -0.565379 -0.833631
1 0.0624287 -0.592297 -0.833432
1 0.0624485 -0.592248 0.833096
18
iterationCount: 18, previousEnergy: -1459.374854, currentEnergy: -1459.402508, stepSize: 0.027285
6 0.405799 0.0201248 -0.000190404
6 -0.313995 1.23016 -0.000213774
6 0.373998 2.45629 -0.000199729
1 -1.01666 1.22055 0.829569
1 -1.01662 1.22054 -0.830028
6 1.78217 2.47479 -0.000204515
1 0.0158217 3.06009 0.829996
1 0.0158119 3.06012 -0.830371
6 2.50145 1.26557 -0.000225746
1 2.12489 3.08712 0.829913
1 2.12488 3.08716 -0.830299
6 1.81299 0.0386068 -0.000204644
1 3.20411 1.2746 0.829566
1 3.20406 1.2746 -0.830054
1 2.17165 -0.564928 0.829982
1 2.17164 -0.564951 -0.83038
1 0.0626018 -0.591952 -0.830298
1 0.0626216 -0.591903 0.829961
18
iterationCount: 18, previousEnergy: -1459.402508, currentEnergy: -1459.402508, stepSize: 0.034106
6 0.405799 0.0201248 -0.000190404
6 -0.313995 1.23016 -0.000213774
6 0.373998 2.45629 -0.000199729
1 -1.01666 1.22055 0.829569
1 -1.01662 1.22054 -0.830028
6 1.78217 2.47479 -0.000204515
1 0.0158217 3.06009 0.829996
1 0.0158119 3.06012 -0.830371
6 2.50145 1.26557 -0.000225746
1 2.12489 3.08712 0.829913
1 2.12488 3.08716 -0.830299
6 1.81299 0.0386068 -0.000204644
1 3.20411 1.2746 0.829566
1 3.20406 1.2746 -0.830054
1 2.17165 -0.564928 0.829982
1 2.17164 -0.564951 -0.83038
1 0.0626018 -0.591952 -0.830298
1 0.0626216 -0.591903 0.829961
18
iterationCount: 19, previousEnergy: -1459.402508, currentEnergy: -1459.397749, stepSize: 0.034106
6 0.402301 0.0158386 -0.000190078
6 -0.321029 1.22723 -0.000213972
6 0.373311 2.46381 -0.000199456
1 -1.01116 1.22064 0.829921
1 -1.01112 1.22064 -0.830379
6 1.7833 2.4804 -0.000204328
1 0.0185357 3.05555 0.830374
1 0.018526 3.05557 -0.830749
6 2.50853 1.26582 -0.000225912
1 2.12236 3.08268 0.830519
1 2.12236 3.08271 -0.830905
6 1.81601 0.0324516 -0.000204613
1 3.19861 1.27451 0.829913
1 3.19857 1.27451 -0.830401
1 2.16894 -0.560377 0.830355
1 2.16893 -0.5604 -0.830753
1 0.0651244 -0.58751 -0.830899
1 0.0651442 -0.587461 0.830562
18
iterationCount: 20, previousEnergy: -1459.402508, currentEnergy: -1459.410247, stepSize: 0.017053
6 0.40405 0.0179817 -0.000190241
6 -0.317512 1.2287 -0.000213873
6 0.373655 2.46005 -0.000199592
1 -1.01391 1.2206 0.829745
1 -1.01387 1.22059 -0.830203
6 1.78273 2.4776 -0.000204422
1 0.0171787 3.05782 0.830185
1 0.017169 3.05785 -0.83056
6 2.50499 1.26569 -0.000225829
1 2.12363 3.0849 0.830216
1 2.12362 3.08494 -0.830602
6 1.8145 0.0355292 -0.000204628
1 3.20136 1.27456 0.82974
1 3.20132 1.27456 -0.830228
1 2.1703 -0.562653 0.830169
1 2.17028 -0.562676 -0.830566
1 0.0638631 -0.589731 -0.830598
1 0.0638829 -0.589682 0.830262
18
iterationCount: 20, previousEnergy: -1459.410247, currentEnergy: -1459.410247, stepSize: 0.021316
6 0.40405 0.0179817 -0.000190241
6 -0.317512 1.2287 -0.000213873
6 0.373655 2.46005 -0.000199592
1 -1.01391 1.2206 0.829745
1 -1.01387 1.22059 -0.830203
6 1.78273 2.4776 -0.000204422
1 0.0171787 3.05782 0.830185
1 0.017169 3.05785 -0.83056
6 2.50499 1.26569 -0.000225829
1 2.12363 3.0849 0.830216
1 2.12362 3.08494 -0.830602
6 1.8145 0.0355292 -0.000204628
1 3.20136 1.27456 0.82974
1 3.20132 1.27456 -0.830228
1 2.1703 -0.562653 0.830169
1 2.17028 -0.562676 -0.830566
1 0.0638631 -0.589731 -0.830598
1 0.0638829 -0.589682 0.830262
18
iterationCount: 21, previousEnergy: -1459.410247, currentEnergy: -1459.411969, stepSize: 0.021316
6 0.406902 0.0204006 -0.000190206
6 -0.312078 1.23213 -0.000213647
6 0.372959 2.45383 -0.000199545
1 -1.01204 1.2206 0.833047
1 -1.012 1.2206 -0.833505
6 1.78287 2.47351 -0.000204298
1 0.0181441 3.05631 0.833394
1 0.0181344 3.05634 -0.833768
6 2.4995 1.26566 -0.000225635
1 2.12262 3.08318 0.83319
1 2.12262 3.08321 -0.833576
6 1.81226 0.040023 -0.00020457
1 3.19949 1.27456 0.833042
1 3.19945 1.27456 -0.83353
1 2.16933 -0.561143 0.833381
1 2.16932 -0.561166 -0.833779
1 0.0648656 -0.588013 -0.833571
1 0.0648855 -0.587965 0.833234
18
iterationCount: 21, previousEnergy: -1459.411969, currentEnergy: -1459.411969, stepSize: 0.026645
6 0.406902 0.0204006 -0.000190206
6 -0.312078 1.23213 -0.000213647
6 0.372959 2.45383 -0.000199545
1 -1.01204 1.2206 0.833047
1 -1.012 1.2206 -0.833505
6 1.78287 2.47351 -0.000204298
1 0.0181441 3.05631 0.833394
1 0.0181344 3.05634 -0.833768
6 2.4995 1.26566 -0.000225635
1 2.12262 3.08318 0.83319
1 2.12262 3.08321 -0.833576
6 1.81226 0.040023 -0.00020457
1 3.19949 1.27456 0.833042
1 3.19945 1.27456 -0.83353
1 2.16933 -0.561143 0.833381
1 2.16932 -0.561166 -0.833779
1 0.0648656 -0.588013 -0.833571
1 0.0648855 -0.587965 0.833234
18
iterationCount: 22, previousEnergy: -1459.411969, currentEnergy: -1459.417396, stepSize: 0.026645
6 0.403477 0.019164 -0.000190049
6 -0.317811 1.22618 -0.000213807
6 0.37596 2.46168 -0.000199378
1 -1.00932 1.22068 0.832464
1 -1.00928 1.22067 -0.832923
6 1.78089 2.47777 -0.000204187
1 0.0194301 3.05408 0.832897
1 0.0194205 3.05411 -0.833272
6 2.50529 1.26537 -0.000225794
1 2.12151 3.08121 0.833074
1 2.12151 3.08124 -0.833459
6 1.81461 0.0353709 -0.000204543
1 3.19677 1.27449 0.832457
1 3.19673 1.27449 -0.832945
1 2.16804 -0.55891 0.83288
1 2.16803 -0.558932 -0.833278
1 0.0659749 -0.586042 -0.833451
1 0.0659947 -0.585994 0.833114
18
iterationCount: 22, previousEnergy: -1459.417396, currentEnergy: -1459.417396, stepSize: 0.033307
6 0.403477 0.019164 -0.000190049
6 -0.317811 1.22618 -0.000213807
6 0.37596 2.46168 -0.000199378
1 -1.00932 1.22068 0.832464
1 -1.00928 1.22067 -0.832923
6 1.78089 2.47777 -0.000204187
1 0.0194301 3.05408 0.832897
1 0.0194205 3.05411 -0.833272
6 2.50529 1.26537 -0.000225794
1 2.12151 3.08121 0.833074
1 2.12151 3.08124 -0.833459
6 1.81461 0.0353709 -0.000204543
1 3.19677 1.27449 0.832457
1 3.19673 1.27449 -0.832945
1 2.16804 -0.55891 0.83288
1 2.16803 -0.558932 -0.833278
1 0.0659749 -0.586042 -0.833451
1 0.0659947 -0.585994 0.833114
18
iterationCount: 23, previousEnergy: -1459.417396, currentEnergy: -1459.404954, stepSize: 0.033307
6 0.40812 0.0181147 -0.000189996
6 -0.31162 1.23628 -0.000213613
6 0.369051 2.45148 -0.000199397
1 -1.00887 1.22063 0.835068
1 -1.00883 1.22062 -0.835528
6 1.78616 2.47328 -0.000204149
1 0.0197539 3.0537 0.835323
1 0.0197443 3.05373 -0.835697
6 2.49895 1.26657 -0.000225581
1 2.121 3.08035 0.834888
1 2.121 3.08038 -0.835274
6 1.81177 0.0398067 -0.000204501
1 3.19632 1.27454 0.835054
1 3.19628 1.27454 -0.835543
1 2.16771 -0.55853 0.8353
1 2.1677 -0.558553 -0.835698
1 0.0664932 -0.585194 -0.835264
1 0.0665131 -0.585146 0.834927
18
iterationCount: 24, previousEnergy: -1459.417396, currentEnergy: -1459.425431, stepSize: 0.016653
6 0.405799 0.0186393 -0.000190023
6 -0.314716 1.23123 -0.00021371
6 0.372505 2.45658 -0.000199388
1 -1.00909 1.22065 0.833766
1 -1.00906 1.22065 -0.834226
6 1.78352 2.47552 -0.000204168
1 0.019592 3.05389 0.83411
1 0.0195824 3.05392 -0.834485
6 2.50212 1.26597 -0.000225687
1 2.12126 3.08078 0.833981
1 2.12125 3.08081 -0.834366
6 1.81319 0.0375888 -0.000204522
1 3.19655 1.27452 0.833756
1 3.1965 1.27451 -0.834244
1 2.16788 -0.55872 0.83409
1 2.16786 -0.558743 -0.834488
1 0.066234 -0.585618 -0.834358
1 0.0662539 -0.58557 0.834021
18
iterationCount: 24, previousEnergy: -1459.425431, currentEnergy: -1459.425431, stepSize: 0.020817
6 0.405799 0.0186393 -0.000190023
6 -0.314716 1.23123 -0.00021371
6 0.372505 2.45658 -0.000199388
1 -1.00909 1.22065 0.833766
1 -1.00906 1.22065 -0.834226
6 1.78352 2.47552 -0.000204168
1 0.019592 3.05389 0.83411
1 0.0195824 3.05392 -0.834485
6 2.50212 1.26597 -0.000225687
1 2.12126 3.08078 0.833981
1 2.12125 3.08081 -0.834366
6 1.81319 0.0375888 -0.000204522
1 3.19655 1.27452 0.833756
1 3.1965 1.27451 -0.834244
1 2.16788 -0.55872 0.83409
1 2.16786 -0.558743 -0.834488
1 0.066234 -0.585618 -0.834358
1 0.0662539 -0.58557 0.834021
18
iterationCount: 25, previousEnergy: -1459.425431, currentEnergy: -1459.419802, stepSize: 0.020817
6 0.403408 0.0215875 -0.000189939
6 -0.316036 1.22452 -0.0002137
6 0.378441 2.4611 -0.000199238
1 -1.00671 1.22071 0.834791
1 -1.00668 1.22071 -0.835251
6 1.77853 2.47668 -0.000204013
1 0.0206979 3.05199 0.835212
1 0.0206883 3.05202 -0.835586
6 2.50362 1.26439 -0.000225709
1 2.12032 3.07913 0.835454
1 2.12032 3.07916 -0.835839
6 1.81446 0.0372453 -0.000204479
1 3.19416 1.27445 0.834771
1 3.19412 1.27445 -0.83526
1 2.16677 -0.556812 0.835181
1 2.16676 -0.556835 -0.835579
1 0.0671697 -0.583972 -0.835826
1 0.0671896 -0.583924 0.835489
18
iterationCount: 26, previousEnergy: -1459.425431, currentEnergy: -1459.427868, stepSize: 0.010408
6 0.404604 0.0201134 -0.000189981
6 -0.315376 1.22788 -0.000213705
6 0.375473 2.45884 -0.000199313
1 -1.0079 1.22068 0.834279
1 -1.00787 1.22068 -0.834738
6 1.78103 2.4761 -0.00020409
1 0.0201449 3.05294 0.834661
1 0.0201353 3.05297 -0.835036
6 2.50287 1.26518 -0.000225698
1 2.12079 3.07995 0.834717
1 2.12078 3.07999 -0.835103
6 1.81382 0.037417 -0.0002045
1 3.19535 1.27448 0.834264
1 3.19531 1.27448 -0.834752
1 2.16732 -0.557766 0.834636
1 2.16731 -0.557789 -0.835034
1 0.0667019 -0.584795 -0.835092
1 0.0667217 -0.584747 0.834755
18
iterationCount: 26, previousEnergy: -1459.427868, currentEnergy: -1459.427868, stepSize: 0.013010
6 0.404604 0.0201134 -0.000189981
6 -0.315376 1.22788 -0.000213705
6 0.375473 2.45884 -0.000199313
1 -1.0079 1.22068 0.834279
1 -1.00787 1.22068 -0.834738
6 1.78103 2.4761 -0.00020409
1 0.0201449 3.05294 0.834661
1 0.0201353 3.05297 -0.835036
6 2.50287 1.26518 -0.000225698
1 2.12079 3.07995 0.834717
1 2.12078 3.07999 -0.835103
6 1.81382 0.037417 -0.0002045
1 3.19535 1.27448 0.834264
1 3.19531 1.27448 -0.834752
1 2.16732 -0.557766 0.834636
1 2.16731 -0.557789 -0.835034
1 0.0667019 -0.584795 -0.835092
1 0.0667217 -0.584747 0.834755
18
iterationCount: 27, previousEnergy: -1459.427868, currentEnergy: -1459.428549, stepSize: 0.013010
6 0.406381 0.0183206 -0.000189882
6 -0.314442 1.23215 -0.000213677
6 0.371778 2.45596 -0.000199264
1 -1.00676 1.22068 0.835254
1 -1.00672 1.22067 -0.835713
6 1.78416 2.47516 -0.000204037
1 0.0207533 3.05199 0.835564
1 0.0207437 3.05202 -0.835939
6 2.50184 1.2665 -0.000225653
1 2.12014 3.07883 0.835422
1 2.12014 3.07887 -0.835807
6 1.81269 0.037468 -0.000204455
1 3.19421 1.27449 0.835246
1 3.19417 1.27449 -0.835735
1 2.16672 -0.556823 0.835551
1 2.16671 -0.556846 -0.835948
1 0.0673497 -0.583678 -0.835797
1 0.0673696 -0.58363 0.835461
18
iterationCount: 27, previousEnergy: -1459.428549, currentEnergy: -1459.428549, stepSize: 0.016263
6 0.406381 0.0183206 -0.000189882
6 -0.314442 1.23215 -0.000213677
6 0.371778 2.45596 -0.000199264
1 -1.00676 1.22068 0.835254
1 -1.00672 1.22067 -0.835713
6 1.78416 2.47516 -0.000204037
1 0.0207533 3.05199 0.835564
1 0.0207437 3.05202 -0.835939
6 2.50184 1.2665 -0.000225653
1 2.12014 3.07883 0.835422
1 2.12014 3.07887 -0.835807
6 1.81269 0.037468 -0.000204455
1 3.19421 1.27449 0.835246
1 3.19417 1.27449 -0.835735
1 2.16672 -0.556823 0.835551
1 2.16671 -0.556846 -0.835948
1 0.0673497 -0.583678 -0.835797
1 0.0673696 -0.58363 0.835461
18
iterationCount: 28, previousEnergy: -1459.428549, currentEnergy: -1459.428687, stepSize: 0.016263
6 0.40395 0.0210706 -0.000189852
6 -0.315187 1.22635 -0.000213667
6 0.376975 2.45953 -0.000199176
1 -1.00564 1.22072 0.835743
1 -1.0056 1.22071 -0.836203
6 1.77967 2.47628 -0.000203941
1 0.0212552 3.05111 0.83611
1 0.0212456 3.05114 -0.836485
6 2.50269 1.26438 -0.000225665
1 2.11974 3.07813 0.836221
1 2.11974 3.07816 -0.836607
6 1.81431 0.0379412 -0.000204446
1 3.19309 1.27445 0.835731
1 3.19305 1.27445 -0.83622
1 2.16622 -0.555938 0.836091
1 2.16621 -0.55596 -0.836489
1 0.0677452 -0.582975 -0.836594
1 0.0677651 -0.582927 0.836257
18
iterationCount: 28, previousEnergy: -1459.428687, currentEnergy: -1459.428687, stepSize: 0.020329
6 0.40395 0.0210706 -0.000189852
6 -0.315187 1.22635 -0.000213667
6 0.376975 2.45953 -0.000199176
1 -1.00564 1.22072 0.835743
1 -1.0056 1.22071 -0.836203
6 1.77967 2.47628 -0.000203941
1 0.0212552 3.05111 0.83611
1 0.0212456 3.05114 -0.836485
6 2.50269 1.26438 -0.000225665
1 2.11974 3.07813 0.836221
1 2.11974 3.07816 -0.836607
6 1.81431 0.0379412 -0.000204446
1 3.19309 1.27445 0.835731
1 3.19305 1.27445 -0.83622
1 2.16622 -0.555938 0.836091
1 2.16621 -0.55596 -0.836489
1 0.0677452 -0.582975 -0.836594
1 0.0677651 -0.582927 0.836257
18