2
iterationCount: 0, previousEnergy: -40.568941, currentEnergy: 4.740744, stepSize: 0.750000
1 0.280639 0 0
1 0.465361 0 0
2
iterationCount: 1, previousEnergy: -40.568941, currentEnergy: -36.490435, stepSize: 0.375000
1 0.140319 0 0
1 0.605681 0 0
2
iterationCount: 2, previousEnergy: -40.568941, currentEnergy: -39.929262, stepSize: 0.187500
1 0.0701597 0 0
1 0.67584 0 0
2
iterationCount: 3, previousEnergy: -40.568941, currentEnergy: -40.477973, stepSize: 0.093750
1 0.0350798 0 0
1 0.71092 0 0
2
iterationCount: 4, previousEnergy: -40.568941, currentEnergy: -40.570405, stepSize: 0.046875
1 0.0175399 0 0
1 0.72846 0 0
2
iterationCount: 4, previousEnergy: -40.570405, currentEnergy: -40.570405, stepSize: 0.058594
1 0.0175399 0 0
1 0.72846 0 0
2
iterationCount: 5, previousEnergy: -40.570405, currentEnergy: -40.555871, stepSize: 0.058594
1 -0.00438498 0 0
1 0.750385 0 0
2
iterationCount: 6, previousEnergy: -40.570405, currentEnergy: -40.579399, stepSize: 0.029297
1 0.00657747 0 0
1 0.739423 0 0
2
iterationCount: 6, previousEnergy: -40.579399, currentEnergy: -40.579399, stepSize: 0.036621
1 0.00657747 0 0
1 0.739423 0 0
2
iterationCount: 7, previousEnergy: -40.579399, currentEnergy: -40.562606, stepSize: 0.036621
1 0.0202805 0 0
1 0.72572 0 0
2
iterationCount: 8, previousEnergy: -40.579399, currentEnergy: -40.577838, stepSize: 0.018311
1 0.013429 0 0
1 0.732571 0 0
2
iterationCount: 9, previousEnergy: -40.579399, currentEnergy: -40.580265, stepSize: 0.009155
1 0.0100032 0 0
1 0.735997 0 0
2
iterationCount: 9, previousEnergy: -40.580265, currentEnergy: -40.580265, stepSize: 0.011444
1 0.0100032 0 0
1 0.735997 0 0
2
iterationCount: 10, previousEnergy: -40.580265, currentEnergy: -40.578682, stepSize: 0.011444
1 0.00572103 0 0
1 0.740279 0 0
2
iterationCount: 11, previousEnergy: -40.580265, currentEnergy: -40.580102, stepSize: 0.005722
1 0.00786213 0 0
1 0.738138 0 0
2
iterationCount: 12, previousEnergy: -40.580265, currentEnergy: -40.580342, stepSize: 0.002861
1 0.00893268 0 0
1 0.737067 0 0
2
iterationCount: 12, previousEnergy: -40.580342, currentEnergy: -40.580342, stepSize: 0.003576
1 0.00893268 0 0
1 0.737067 0 0
2
iterationCount: 13, previousEnergy: -40.580342, currentEnergy: -40.580196, stepSize: 0.003576
1 0.0102709 0 0
1 0.735729 0 0
2
iterationCount: 14, previousEnergy: -40.580342, currentEnergy: -40.580331, stepSize: 0.001788
1 0.00960178 0 0
1 0.736398 0 0
2
iterationCount: 15, previousEnergy: -40.580342, currentEnergy: -40.580352, stepSize: 0.000894
1 0.00926723 0 0
1 0.736733 0 0
2
iterationCount: 15, previousEnergy: -40.580352, currentEnergy: -40.580352, stepSize: 0.001118
1 0.00926723 0 0
1 0.736733 0 0
